13   
52   

1    
  0.0039608265833016   0.0000000000000000   0.0030515328569445
  -0.2643194400    0.0129931800   -0.0335902200
   0.0459309300   -0.0023644500    0.0162673600
   0.1116708000    0.0375651300    0.0184222900
   0.0170791200   -0.0065224200   -0.0024006900
   0.0120225500    0.0093697700    0.0012025200
  -0.0162282500   -0.0117506200   -0.0025288600
   0.0815135700   -0.0513597200    0.0089549000
   0.0007626200    0.0071293500   -0.0008968400
   0.0005949800   -0.0001100100   -0.0014784800
   0.0007506000    0.0043563900   -0.0018460700
  -0.0001815500    0.0011853000    0.0003177000
   0.0030541900    0.0001993000    0.0003002200
   0.0073498900   -0.0006912100   -0.0027238100

1    
 -0.0039608265833016   0.0000000000000000  -0.0030515328569445
   0.2466857100   -0.0080768600    0.0334233800
  -0.0417518600    0.0056802600   -0.0162206700
  -0.1047482600   -0.0373510400   -0.0188022900
  -0.0180373100    0.0110124200    0.0023363500
  -0.0015867600   -0.0078040100   -0.0012012900
   0.0075312400    0.0051408800    0.0024806400
  -0.0983278600    0.0408983500   -0.0083720600
   0.0013003200   -0.0143327200    0.0009537500
  -0.0013765500    0.0021783900    0.0014847100
  -0.0020242500    0.0068301300    0.0018323900
   0.0000563400    0.0006246000   -0.0003143000
   0.0061081700    0.0012776400   -0.0002968400
   0.0061710800   -0.0060780500    0.0026962200

1    
  0.0000000000000000   0.0050000000000000   0.0000000000000000
   0.0054290900   -0.3200452800    0.0000000000
   0.0223183700    0.1584071300    0.0000000000
   0.0175384200    0.0673350900    0.0000000000
   0.0038550000   -0.0211184800    0.0000000000
   0.0183877800    0.0180750800    0.0000000000
  -0.0331118000    0.0142100100    0.0000000000
  -0.0667476100    0.0588676300    0.0000000000
   0.0002923700    0.0009143800    0.0000000000
  -0.0022963500    0.0018451300    0.0000000000
  -0.0017703100    0.0054341500    0.0000000000
   0.0003893900    0.0012249100    0.0000000000
   0.0074526500   -0.0011183400    0.0000000000
   0.0282630200    0.0159685800    0.0000000000

1    
  0.0000000000000000  -0.0050000000000000   0.0000000000000000
  -0.0211593100    0.3331257500    0.0000000000
  -0.0187026600   -0.1609130300    0.0000000000
  -0.0120261200   -0.0685170400    0.0000000000
  -0.0050381900    0.0257526800    0.0000000000
  -0.0080529700   -0.0166208200    0.0000000000
   0.0246950200   -0.0209770600    0.0000000000
   0.0499474600   -0.0703674600    0.0000000000
   0.0017574200   -0.0081508800    0.0000000000
   0.0015033500    0.0002284700    0.0000000000
   0.0004985200    0.0057507800    0.0000000000
  -0.0005204800    0.0005804500    0.0000000000
   0.0017211300    0.0026312400    0.0000000000
  -0.0146231700   -0.0225230600    0.0000000000

2    
  0.0039608265833016   0.0000000000000000   0.0030515328569445
   0.0354745400    0.0199863600    0.0162308400
  -0.2627620900   -0.0058186900   -0.0377839400
  -0.0071952800    0.0117981100   -0.0006916400
   0.0036600800   -0.0066922200    0.0010749500
   0.0270530000    0.0053370800   -0.0023175100
   0.0954989600   -0.0521910800    0.0175025300
  -0.0094782000   -0.0161946100   -0.0005362000
   0.1046660200    0.0354832200    0.0104506000
  -0.0005041300    0.0008025100    0.0003069700
  -0.0025440000    0.0071551400   -0.0005075900
   0.0014323200    0.0019952800   -0.0018878300
   0.0051004600    0.0006140000    0.0002071200
   0.0095983200   -0.0022751000   -0.0020482900

2    
 -0.0039608265833016   0.0000000000000000  -0.0030515328569445
  -0.0522070000   -0.0125017700   -0.0162571600
   0.2672966300    0.0117534900    0.0376059200
   0.0119704700   -0.0129290800    0.0006421100
  -0.0047487600    0.0112301900   -0.0010779400
  -0.0165063700   -0.0037965400    0.0022476700
  -0.1025979500    0.0441757100   -0.0178559400
  -0.0060262600    0.0044576200    0.0005925000
  -0.1045762300   -0.0438818800   -0.0098189000
  -0.0002922100    0.0012636200   -0.0003049000
   0.0012821000    0.0040331800    0.0005027600
  -0.0015433000   -0.0001893900    0.0018924200
   0.0040723400    0.0008804400   -0.0002055900
   0.0038765100   -0.0044956000    0.0020370500

2    
  0.0000000000000000   0.0050000000000000   0.0000000000000000
  -0.0132100200    0.1663713800    0.0000000000
  -0.0096797600   -0.3157383800    0.0000000000
   0.0392732200    0.0090021100    0.0000000000
  -0.0101636000    0.0227840600    0.0000000000
  -0.0081730000   -0.0239992700    0.0000000000
  -0.0384254900    0.0845533200    0.0000000000
  -0.0064213500    0.0002055200    0.0000000000
   0.0510179100    0.0463626200    0.0000000000
  -0.0009079600    0.0014430400    0.0000000000
  -0.0131480000    0.0117806600    0.0000000000
   0.0017441200    0.0009738200    0.0000000000
   0.0044132400    0.0011799600    0.0000000000
   0.0036806900   -0.0049188400    0.0000000000

2    
  0.0000000000000000  -0.0050000000000000   0.0000000000000000
  -0.0030672900   -0.1529521700    0.0000000000
   0.0125108800    0.3133549400    0.0000000000
  -0.0342509200   -0.0100747700    0.0000000000
   0.0089915300   -0.0181682800    0.0000000000
   0.0185151900    0.0254779700    0.0000000000
   0.0311840200   -0.0916952300    0.0000000000
  -0.0091020700   -0.0118522100    0.0000000000
  -0.0495212800   -0.0533192400    0.0000000000
   0.0001109500    0.0006269500    0.0000000000
   0.0119609300   -0.0006946900    0.0000000000
  -0.0018673900    0.0008294500    0.0000000000
   0.0047546000    0.0003168500    0.0000000000
   0.0097808600   -0.0018495800    0.0000000000

3    
  0.0039608265833016   0.0000000000000000   0.0030515328569445
   0.0988039600    0.0150767200    0.0188096400
  -0.0075392400    0.0305387500   -0.0006606700
  -0.2582342500    0.0063673400   -0.0438641400
   0.1012150900   -0.0181856300    0.0190250700
  -0.0102633600   -0.0242660900   -0.0006415500
   0.0198474200   -0.0054890600    0.0016951300
  -0.0008834800   -0.0015703800   -0.0010468900
   0.0002410100   -0.0041113500   -0.0021059200
   0.0068802600   -0.0048717200   -0.0013852600
   0.0000322700    0.0055517900    0.0000966200
  -0.0006929800    0.0017107400   -0.0021897300
   0.0045878200   -0.0160723100    0.0008424200
   0.0460054700    0.0153211900    0.0114252900

3    
 -0.0039608265833016   0.0000000000000000  -0.0030515328569445
  -0.1176171300   -0.0083501600   -0.0184151200
   0.0116264700   -0.0277044600    0.0006734700
   0.2636868300   -0.0047980700    0.0438703000
  -0.1007420900    0.0214642000   -0.0194042200
   0.0206816100    0.0257405100    0.0006434800
  -0.0284598400   -0.0010664600   -0.0016956300
  -0.0147209800   -0.0102016400    0.0011151700
   0.0018316600   -0.0030586100    0.0020833800
  -0.0075736100    0.0069229500    0.0013155800
  -0.0013068900    0.0056418500   -0.0000967100
   0.0005686800    0.0000902200    0.0022128800
   0.0045894100    0.0175946300   -0.0007404000
  -0.0325641200   -0.0222749500   -0.0115622000

3    
  0.0000000000000000   0.0050000000000000   0.0000000000000000
   0.0386069400    0.0719469600    0.0000000000
   0.0176540400    0.0109296800    0.0000000000
   0.0089445900   -0.3142014800    0.0000000000
  -0.0547881900    0.0777953300    0.0000000000
  -0.0059167200    0.0179059300    0.0000000000
  -0.0069787000   -0.0054553900    0.0000000000
  -0.0174893700   -0.0084290700    0.0000000000
   0.0008718600   -0.0013347600    0.0000000000
   0.0069643200   -0.0036254600    0.0000000000
  -0.0007823100    0.0052832100    0.0000000000
   0.0005987100    0.0029018600    0.0000000000
   0.0065455400    0.0144676600    0.0000000000
   0.0057693000    0.1318155200    0.0000000000

3    
  0.0000000000000000  -0.0050000000000000   0.0000000000000000
  -0.0559563600   -0.0639062900    0.0000000000
  -0.0135576600   -0.0081496600    0.0000000000
  -0.0051339200    0.3082112500    0.0000000000
   0.0550194400   -0.0736336600    0.0000000000
   0.0163325900   -0.0165356200    0.0000000000
  -0.0016422200   -0.0012334300    0.0000000000
   0.0019768800   -0.0033227600    0.0000000000
   0.0011924400   -0.0058303100    0.0000000000
  -0.0077692600    0.0057038000    0.0000000000
  -0.0004914400    0.0059163700    0.0000000000
  -0.0007126800   -0.0011010800    0.0000000000
   0.0025236300   -0.0126563300    0.0000000000
   0.0082185500   -0.1334622600    0.0000000000

4    
  0.0039608265833016   0.0000000000000000   0.0030515328569445
   0.0091578500    0.0074844600   -0.0023352600
   0.0062548600   -0.0061181500    0.0010751900
   0.1026628800   -0.0433725700    0.0193920000
  -0.2628366400   -0.0117682900   -0.0346350400
   0.0503412800    0.0177776500    0.0163647000
  -0.0116618200    0.0084176800   -0.0024266300
  -0.0063202200   -0.0047364500   -0.0014299900
   0.0008579900   -0.0037975200    0.0003341300
   0.1047394600    0.0431159600    0.0090278900
   0.0010737700    0.0065906400   -0.0017721400
  -0.0017577600   -0.0091129500   -0.0010043400
   0.0037380600    0.0021464900   -0.0007699200
   0.0037502900   -0.0066269500   -0.0018205900

4    
 -0.0039608265833016   0.0000000000000000  -0.0030515328569445
  -0.0259597900    0.0004388300    0.0024018300
  -0.0021514800    0.0090556000   -0.0010776200
  -0.0992942900    0.0436156800   -0.0190370200
   0.2614087000    0.0132466100    0.0348166100
  -0.0398446600   -0.0158329500   -0.0163470700
   0.0031051200   -0.0150584200    0.0024844900
  -0.0091985000   -0.0070320400    0.0014270700
   0.0012190700   -0.0033614900   -0.0003377200
  -0.1036790600   -0.0397602500   -0.0096732000
  -0.0023506300    0.0045940200    0.0017847900
   0.0016345500    0.0108903500    0.0009547900
   0.0054151200   -0.0006318800    0.0007705700
   0.0096958600   -0.0001640600    0.0018324900

4    
  0.0000000000000000   0.0050000000000000   0.0000000000000000
  -0.0193536200   -0.0194368700    0.0000000000
  -0.0092211100    0.0218939600    0.0000000000
  -0.0232754200    0.0753512600    0.0000000000
  -0.0156861300   -0.3241782100    0.0000000000
   0.0006933700    0.1606112900    0.0000000000
   0.0280299300    0.0075671400    0.0000000000
  -0.0058056900   -0.0058893800    0.0000000000
   0.0006629300   -0.0031870100    0.0000000000
   0.0514937800    0.0523745100    0.0000000000
   0.0001835800    0.0051016400    0.0000000000
   0.0016000600    0.0071865000    0.0000000000
   0.0051436300    0.0040029800    0.0000000000
  -0.0144653200    0.0186021900    0.0000000000

4    
  0.0000000000000000  -0.0050000000000000   0.0000000000000000
   0.0027807900    0.0274336400    0.0000000000
   0.0134051000   -0.0190574400    0.0000000000
   0.0267722900   -0.0760802600    0.0000000000
   0.0158888800    0.3338738700    0.0000000000
   0.0092444900   -0.1646099600    0.0000000000
  -0.0368363500   -0.0142876400    0.0000000000
  -0.0096990500   -0.0058719500    0.0000000000
   0.0014168900   -0.0039773500    0.0000000000
  -0.0515845600   -0.0504703600    0.0000000000
  -0.0014610500    0.0060835200    0.0000000000
  -0.0017032700   -0.0054795900    0.0000000000
   0.0040097400   -0.0024694500    0.0000000000
   0.0277661100   -0.0250870300    0.0000000000

5    
  0.0039608265833016   0.0000000000000000   0.0030515328569445
  -0.0015278600    0.0144357900    0.0012037600
   0.0237667500   -0.0090984000   -0.0022493800
  -0.0130196300   -0.0093963700   -0.0006215800
   0.0445107300   -0.0013400500    0.0163383000
  -0.2553705600    0.0131546600   -0.0380680500
   0.1026477500    0.0378326200    0.0179184600
  -0.0077616200   -0.0056126200    0.0002910500
   0.0021162900   -0.0048070300   -0.0019426800
  -0.0011792900    0.0116187100   -0.0006318600
  -0.0013017100    0.0048108100   -0.0004977100
   0.0922489200   -0.0470967600    0.0100397900
   0.0047091500   -0.0001297600   -0.0004863200
   0.0101610800   -0.0043716000   -0.0012937700

5    
 -0.0039608265833016   0.0000000000000000  -0.0030515328569445
  -0.0151389200   -0.0065068600   -0.0012000000
  -0.0197914700    0.0120401000    0.0023159500
   0.0179253700    0.0082313800    0.0006632100
  -0.0456754900    0.0054423200   -0.0163735200
   0.2667009100   -0.0086113400    0.0382334500
  -0.1133759000   -0.0457753200   -0.0175364500
  -0.0077401200   -0.0061584200   -0.0002929000
  -0.0000557800   -0.0023544700    0.0019358100
   0.0003967100   -0.0095054300    0.0005680000
   0.0000071100    0.0063703800    0.0005123500
  -0.0909945400    0.0475943400   -0.0106174300
   0.0044616200    0.0016346300    0.0004889800
   0.0032804900   -0.0024013100    0.0013025400

5    
  0.0000000000000000   0.0050000000000000   0.0000000000000000
   0.0025464800    0.0213553600    0.0000000000
   0.0078592400   -0.0233257800    0.0000000000
  -0.0292331600    0.0167185700    0.0000000000
   0.0209577600    0.1676593700    0.0000000000
   0.0184467800   -0.3228545500    0.0000000000
   0.0220912600    0.0718551200    0.0000000000
  -0.0071812400   -0.0055155600    0.0000000000
  -0.0009872500   -0.0030011300    0.0000000000
  -0.0010573300    0.0050776900    0.0000000000
   0.0128393900    0.0100900400    0.0000000000
  -0.0593936700    0.0669400300    0.0000000000
   0.0045253400    0.0005831800    0.0000000000
   0.0085864200   -0.0055823500    0.0000000000

5    
  0.0000000000000000  -0.0050000000000000   0.0000000000000000
  -0.0191334800   -0.0133407100    0.0000000000
  -0.0036745000    0.0261523200    0.0000000000
   0.0338908000   -0.0177262100    0.0000000000
  -0.0214801000   -0.1575626700    0.0000000000
  -0.0090251800    0.3189341500    0.0000000000
  -0.0314291500   -0.0785271200    0.0000000000
  -0.0083173700   -0.0062513100    0.0000000000
   0.0030577000   -0.0041660700    0.0000000000
   0.0002886400   -0.0029187300    0.0000000000
  -0.0142046000    0.0010228700    0.0000000000
   0.0605134200   -0.0653424400    0.0000000000
   0.0046407900    0.0009198700    0.0000000000
   0.0048730600   -0.0011939400    0.0000000000

6    
  0.0039608265833016   0.0000000000000000   0.0030515328569445
  -0.0202032400   -0.0189068200   -0.0024982500
   0.1003041200   -0.0254350500    0.0178696500
   0.0265780500   -0.0027026300    0.0016948800
  -0.0079328700    0.0280032000   -0.0024671900
   0.1143056200    0.0226025100    0.0175247000
  -0.2470184900   -0.0063755700   -0.0356190100
  -0.0085144000   -0.0050426500   -0.0019623500
   0.0076583200   -0.0097594000   -0.0009678100
  -0.0011998700    0.0006459100   -0.0020423800
   0.0203998700    0.0132821600    0.0091193600
   0.0066268700    0.0055761800   -0.0010266600
   0.0044949300    0.0010191300   -0.0000381500
   0.0045011000   -0.0029069500    0.0004132100

6    
 -0.0039608265833016   0.0000000000000000  -0.0030515328569445
   0.0035602800    0.0268807400    0.0025116500
  -0.0977883400    0.0297173000   -0.0174888800
  -0.0217298500    0.0015175800   -0.0016957900
   0.0068297700   -0.0233842100    0.0024442400
  -0.1017204400   -0.0197986300   -0.0179303400
   0.2377168100   -0.0035582300    0.0355983200
  -0.0069902700   -0.0067169100    0.0019461200
  -0.0056866300    0.0026307100    0.0010333000
   0.0004108700    0.0014304900    0.0020584400
  -0.0215826600   -0.0015472400   -0.0090690500
  -0.0066482500   -0.0037519100    0.0009662900
   0.0046720900    0.0004801900    0.0000377600
   0.0089566000   -0.0038998700   -0.0004120500

6    
  0.0000000000000000   0.0050000000000000   0.0000000000000000
  -0.0190203200    0.0216420300    0.0000000000
  -0.0594348700    0.0897522700    0.0000000000
  -0.0003794900   -0.0026652800    0.0000000000
   0.0143094200    0.0132514200    0.0000000000
   0.0583180200    0.0759047900    0.0000000000
  -0.0055458500   -0.3440658500    0.0000000000
  -0.0072824300   -0.0034279200    0.0000000000
   0.0075693000   -0.0086963100    0.0000000000
  -0.0004681600    0.0035239100    0.0000000000
   0.0085284000    0.1592129100    0.0000000000
  -0.0085251200   -0.0040654900    0.0000000000
   0.0047743000    0.0004662600    0.0000000000
   0.0071567900   -0.0008327400    0.0000000000

6    
  0.0000000000000000  -0.0050000000000000   0.0000000000000000
   0.0023024900   -0.0135424200    0.0000000000
   0.0622010400   -0.0864967600    0.0000000000
   0.0052065000    0.0015574000    0.0000000000
  -0.0153280600   -0.0086064100    0.0000000000
  -0.0472119700   -0.0744835300    0.0000000000
  -0.0019877700    0.3418908700    0.0000000000
  -0.0082286500   -0.0083228200    0.0000000000
  -0.0054789000    0.0015450400    0.0000000000
  -0.0003165600   -0.0014425700    0.0000000000
  -0.0102481100   -0.1530505000    0.0000000000
   0.0083901900    0.0058857800    0.0000000000
   0.0044002300    0.0010312100    0.0000000000
   0.0062995800   -0.0059653100    0.0000000000

7    
  0.0039608265833016   0.0000000000000000   0.0030515328569445
   0.0822066400   -0.0428356700    0.0084315700
   0.0003278700    0.0025211700   -0.0005629900
   0.0093673300   -0.0083100700   -0.0011039200
   0.0008791700    0.0038189100   -0.0014320100
   0.0051808700    0.0012130700    0.0002924800
  -0.0050714900   -0.0029212800   -0.0019604200
  -0.1035830900    0.0450128300   -0.0058049200
   0.0007335600   -0.0036900900    0.0011775300
  -0.0000134700    0.0006638300   -0.0000204000
  -0.0006657300    0.0056819100   -0.0001559600
  -0.0000503000    0.0008740800    0.0002329400
   0.0049461500    0.0015518900   -0.0001429100
   0.0057424900   -0.0035805900    0.0010490100

7    
 -0.0039608265833016   0.0000000000000000  -0.0030515328569445
  -0.0976336900    0.0496077000   -0.0088963900
   0.0037807300    0.0003973200    0.0005658200
  -0.0044702600    0.0071087000    0.0010580400
  -0.0019989200    0.0007340100    0.0014252000
   0.0052013200    0.0003151900   -0.0002914100
  -0.0035486700   -0.0036701500    0.0019481400
   0.0868564800   -0.0556050200    0.0063127400
   0.0013442100   -0.0034766900   -0.0011679500
  -0.0007778900    0.0014057700    0.0000222800
  -0.0006112500    0.0055119700    0.0001541400
  -0.0000749200    0.0009333700   -0.0002318100
   0.0042218400   -0.0000534900    0.0001381900
   0.0077110300   -0.0032087000   -0.0010369900

7    
  0.0000000000000000   0.0050000000000000   0.0000000000000000
  -0.0659477900    0.0684756200    0.0000000000
  -0.0109267500    0.0074376400    0.0000000000
   0.0078302100   -0.0031156100    0.0000000000
   0.0008821800    0.0022685300    0.0000000000
   0.0055349400    0.0011220500    0.0000000000
  -0.0032461200   -0.0008624800    0.0000000000
   0.0551498200   -0.0743671000    0.0000000000
   0.0011796100   -0.0040676400    0.0000000000
  -0.0001392000    0.0008315800    0.0000000000
  -0.0012940700    0.0059522200    0.0000000000
  -0.0001169100    0.0008868300    0.0000000000
   0.0038887000    0.0008166500    0.0000000000
   0.0072053700   -0.0053782700    0.0000000000

7    
  0.0000000000000000  -0.0050000000000000   0.0000000000000000
   0.0505133000   -0.0607652100    0.0000000000
   0.0151505400   -0.0046162000    0.0000000000
  -0.0030668600    0.0019867000    0.0000000000
  -0.0020173300    0.0022835300    0.0000000000
   0.0048421600    0.0003926400    0.0000000000
  -0.0053583600   -0.0057545100    0.0000000000
  -0.0718637200    0.0629016200    0.0000000000
   0.0008939500   -0.0030935300    0.0000000000
  -0.0006594100    0.0012385600    0.0000000000
   0.0000207200    0.0052385900    0.0000000000
  -0.0000088100    0.0009203500    0.0000000000
   0.0052775800    0.0006742000    0.0000000000
   0.0062762500   -0.0014067400    0.0000000000

8    
  0.0039608265833016   0.0000000000000000   0.0030515328569445
  -0.0086060300    0.0033855300   -0.0009285300
   0.1076047900    0.0418398200    0.0098821300
   0.0016219400   -0.0007188900   -0.0021016500
  -0.0007429800    0.0019823300    0.0003368300
   0.0062814700   -0.0008417200   -0.0019459800
   0.0023827500    0.0018691900   -0.0010186600
  -0.0080548000   -0.0057685100    0.0011780300
  -0.1108184200   -0.0468438600   -0.0067398100
  -0.0003815400    0.0010699000    0.0002454700
  -0.0009838400    0.0055027200    0.0011344100
   0.0003341600    0.0011672500   -0.0000358400
   0.0045898600    0.0007179400    0.0000052400
   0.0067726400   -0.0033616900   -0.0000116400

8    
 -0.0039608265833016   0.0000000000000000  -0.0030515328569445
  -0.0080715900    0.0045457600    0.0009220500
  -0.1016403000   -0.0378106200   -0.0103887300
   0.0032128000   -0.0004679000    0.0020877700
  -0.0003788600    0.0025791100   -0.0003350900
   0.0041089900    0.0023649900    0.0019326000
  -0.0109657200   -0.0084677500    0.0009822300
  -0.0074446400   -0.0059950100   -0.0011675900
   0.1110792200    0.0385626900    0.0072924500
  -0.0004141600    0.0009994700   -0.0002441200
  -0.0002931100    0.0056892700   -0.0011244300
  -0.0004584100    0.0006393700    0.0000373200
   0.0045847600    0.0007806400   -0.0000050500
   0.0066810300   -0.0034200300    0.0000106100

8    
  0.0000000000000000   0.0050000000000000   0.0000000000000000
   0.0052764500    0.0085422300    0.0000000000
   0.0524118700    0.0511845300    0.0000000000
   0.0017579500    0.0016627900    0.0000000000
  -0.0008383900    0.0026775900    0.0000000000
   0.0036401000    0.0013484500    0.0000000000
  -0.0121419700   -0.0084349400    0.0000000000
  -0.0078862900   -0.0063695800    0.0000000000
  -0.0531539100   -0.0554634100    0.0000000000
  -0.0003653100    0.0010055000    0.0000000000
  -0.0003968800    0.0052308400    0.0000000000
  -0.0004925100    0.0007245100    0.0000000000
   0.0046733100    0.0006024500    0.0000000000
   0.0075155900   -0.0027109600    0.0000000000

8    
  0.0000000000000000  -0.0050000000000000   0.0000000000000000
  -0.0218141000   -0.0005235200    0.0000000000
  -0.0477640700   -0.0484983000    0.0000000000
   0.0030873100   -0.0028321300    0.0000000000
  -0.0002890800    0.0018870700    0.0000000000
   0.0067345400    0.0001840300    0.0000000000
   0.0034990600    0.0018047200    0.0000000000
  -0.0076156200   -0.0053964800    0.0000000000
   0.0546496000    0.0484425300    0.0000000000
  -0.0004289800    0.0010643100    0.0000000000
  -0.0008652100    0.0059627700    0.0000000000
   0.0003660900    0.0010808100    0.0000000000
   0.0045014000    0.0008948700    0.0000000000
   0.0059390600   -0.0040706600    0.0000000000

9    
  0.0039608265833016   0.0000000000000000   0.0030515328569445
  -0.0073316700    0.0024681500   -0.0014773600
   0.0019678000    0.0010460100    0.0003050600
   0.0096175600    0.0052431800   -0.0013284800
   0.1027877200    0.0425307800    0.0096072400
   0.0044230400    0.0002387900   -0.0005990700
  -0.0051126200   -0.0033574400   -0.0020432600
  -0.0073697100   -0.0056783600   -0.0000220500
   0.0010531000   -0.0035554900    0.0002441000
  -0.1096016000   -0.0431541300   -0.0068546300
  -0.0006315400    0.0055288900   -0.0001417800
  -0.0003553700    0.0010244400    0.0012229400
   0.0044241900    0.0008040200    0.0001776100
   0.0061291100   -0.0031388400    0.0009097000

9    
 -0.0039608265833016   0.0000000000000000  -0.0030515328569445
  -0.0093028800    0.0054817500    0.0014861200
   0.0021800700    0.0018536100   -0.0003066400
  -0.0048346700   -0.0064288200    0.0013723700
  -0.1056276000   -0.0391333700   -0.0090951700
   0.0060000100    0.0013014600    0.0006008800
  -0.0035036400   -0.0032398100    0.0020576900
  -0.0081331000   -0.0060881200    0.0000206700
   0.0010225700   -0.0036056100   -0.0002453300
   0.1105345600    0.0463720600    0.0062960800
  -0.0006400000    0.0056649200    0.0001434600
   0.0002274000    0.0007799200   -0.0012335800
   0.0047511700    0.0006917100   -0.0001803400
   0.0073261100   -0.0036497000   -0.0009162000

9    
  0.0000000000000000   0.0050000000000000   0.0000000000000000
  -0.0097537900    0.0047839300    0.0000000000
   0.0017846100    0.0018500900    0.0000000000
  -0.0050001000   -0.0052503400    0.0000000000
   0.0514284400    0.0537824400    0.0000000000
   0.0184781300    0.0047289800    0.0000000000
  -0.0048121000   -0.0008279500    0.0000000000
  -0.0082186000   -0.0060865800    0.0000000000
   0.0010819700   -0.0036102000    0.0000000000
  -0.0565582300   -0.0521984600    0.0000000000
   0.0000132100    0.0058472700    0.0000000000
  -0.0002052600    0.0004053300    0.0000000000
   0.0047234800    0.0006725100    0.0000000000
   0.0070382400   -0.0040970200    0.0000000000

9    
  0.0000000000000000  -0.0050000000000000   0.0000000000000000
  -0.0068668900    0.0031658800    0.0000000000
   0.0023690800    0.0010353100    0.0000000000
   0.0098863400    0.0040782900    0.0000000000
  -0.0531772700   -0.0490638300    0.0000000000
  -0.0081882400   -0.0032670700    0.0000000000
  -0.0038216600   -0.0057933600    0.0000000000
  -0.0072811100   -0.0056797600    0.0000000000
   0.0009940400   -0.0035512800    0.0000000000
   0.0564415300    0.0541801600    0.0000000000
  -0.0012893800    0.0053421300    0.0000000000
   0.0000806100    0.0014019800    0.0000000000
   0.0044513000    0.0008277800    0.0000000000
   0.0064016600   -0.0026762200    0.0000000000

10   
  0.0039608265833016   0.0000000000000000   0.0030515328569445
  -0.0069247200    0.0030791300   -0.0018402500
   0.0001533500   -0.0084772200   -0.0004882300
   0.0030862200   -0.0007065900    0.0000965200
   0.0011498000    0.0029315400   -0.0017784800
   0.0045472700    0.0114987200   -0.0005238100
   0.0166362400    0.0038183000    0.0090737800
  -0.0077779700   -0.0064046600   -0.0001564000
   0.0006907500   -0.0033921800    0.0011298300
  -0.0003933400    0.0015503500   -0.0001412400
  -0.0219122900   -0.0020815400   -0.0067300900
  -0.0004137800    0.0007315100    0.0010919700
   0.0046117200    0.0008112800    0.0000258500
   0.0065467600   -0.0033586300    0.0002405300

10   
 -0.0039608265833016   0.0000000000000000  -0.0030515328569445
  -0.0097022000    0.0048784700    0.0018382400
   0.0039776100    0.0114073600    0.0005221300
   0.0017475000   -0.0004744900   -0.0000967600
  -0.0022737600    0.0016333600    0.0017783900
   0.0058589900   -0.0099264300    0.0004861800
  -0.0253477800   -0.0110533800   -0.0091145300
  -0.0077250600   -0.0053622500    0.0001536200
   0.0013824500   -0.0037636800   -0.0011288800
  -0.0004001900    0.0005200000    0.0001439000
   0.0207230600    0.0137972500    0.0067754300
   0.0002905600    0.0010802000   -0.0010915400
   0.0045627000    0.0006863000   -0.0000260700
   0.0069061100   -0.0034227100   -0.0002401100

10   
  0.0000000000000000   0.0050000000000000   0.0000000000000000
  -0.0098746800    0.0038217100    0.0000000000
   0.0040476500    0.0076703800    0.0000000000
   0.0023617200   -0.0009041400    0.0000000000
   0.0006953000    0.0017933900    0.0000000000
   0.0042011700    0.0052697600    0.0000000000
   0.0052619700    0.1552149200    0.0000000000
  -0.0076444600   -0.0055262500    0.0000000000
   0.0009197200   -0.0039481200    0.0000000000
  -0.0004831500    0.0012869800    0.0000000000
  -0.0108691600   -0.1625381500    0.0000000000
   0.0000688000    0.0005533300    0.0000000000
   0.0045415100    0.0007014900    0.0000000000
   0.0067736000   -0.0033953000    0.0000000000

10   
  0.0000000000000000  -0.0050000000000000   0.0000000000000000
  -0.0067509600    0.0041370300    0.0000000000
   0.0001071200   -0.0048013000    0.0000000000
   0.0024727800   -0.0002728600    0.0000000000
  -0.0018262800    0.0027704000    0.0000000000
   0.0061680900   -0.0037974800    0.0000000000
  -0.0134650000   -0.1570472300    0.0000000000
  -0.0078593600   -0.0062424300    0.0000000000
   0.0011551300   -0.0032151600    0.0000000000
  -0.0003105900    0.0007809500    0.0000000000
   0.0091855100    0.1690218600    0.0000000000
  -0.0001930500    0.0012543200    0.0000000000
   0.0046355900    0.0007962300    0.0000000000
   0.0066810100   -0.0033843400    0.0000000000

11   
  0.0039608265833016   0.0000000000000000   0.0030515328569445
  -0.0084347500    0.0043371300    0.0003153000
   0.0035555600    0.0028771200   -0.0018843700
   0.0017865200   -0.0000722300   -0.0021948400
  -0.0022353300    0.0035758400   -0.0009790600
   0.0961902100   -0.0461377600    0.0105608500
   0.0023015600   -0.0099932400   -0.0009769200
  -0.0077388600   -0.0059264100    0.0002318200
   0.0014316800   -0.0039214100   -0.0000374900
  -0.0006894300    0.0009245000    0.0012232900
  -0.0009883600    0.0056991600    0.0010872400
  -0.0964457700    0.0512389500   -0.0073610900
   0.0045610800    0.0008032300    0.0000705700
   0.0067058800   -0.0034049100   -0.0000553000

11   
 -0.0039608265833016   0.0000000000000000  -0.0030515328569445
  -0.0081983600    0.0036166000   -0.0003166700
   0.0005818700    0.0000148100    0.0018960400
   0.0030471700   -0.0011108400    0.0022078600
   0.0011571700    0.0009594500    0.0009800000
  -0.0870529200    0.0488505200   -0.0100975400
  -0.0109728300    0.0034072700    0.0010158200
  -0.0077639100   -0.0058401000   -0.0002330400
   0.0006401600   -0.0032413500    0.0000356700
  -0.0001069800    0.0011515900   -0.0012333600
  -0.0002840300    0.0054917600   -0.0010963600
   0.0975850000   -0.0506164500    0.0068554900
   0.0046155600    0.0006931500   -0.0000706000
   0.0067520900   -0.0033764200    0.0000566800

11   
  0.0000000000000000   0.0050000000000000   0.0000000000000000
  -0.0079596400    0.0043023500    0.0000000000
   0.0034573300    0.0015204800    0.0000000000
   0.0034366000    0.0014213200    0.0000000000
  -0.0132299100    0.0086541100    0.0000000000
  -0.0551392000    0.0669925200    0.0000000000
   0.0016013800   -0.0083006800    0.0000000000
  -0.0077891600   -0.0058986700    0.0000000000
   0.0013719100   -0.0037609100    0.0000000000
  -0.0002413300    0.0005369000    0.0000000000
  -0.0008627800    0.0052455800    0.0000000000
   0.0648139500   -0.0688014500    0.0000000000
   0.0045631200    0.0009976400    0.0000000000
   0.0059777300   -0.0029091700    0.0000000000

11   
  0.0000000000000000  -0.0050000000000000   0.0000000000000000
  -0.0086682300    0.0036552600    0.0000000000