mesh: [     1,     1,     1 ]
nqpoint: 1      
reciprocal_lattice:
- [   0.05136189,   0.00000000,   0.00000000 ] # a*
- [   0.00000000,   0.04850547,   0.00000000 ] # b*
- [   0.00000000,   0.00000000,   0.06666667 ] # c*
natom:   13     
lattice:
- [    19.469690000000000,     0.000000000000000,     0.000000000000000 ] # a
- [     0.000000000000000,    20.616230000000002,     0.000000000000000 ] # b
- [     0.000000000000000,     0.000000000000000,    15.000000000000000 ] # c
points:
- symbol: C  # 1
  coordinates: [  0.440458135467382,  0.521462008373666,  0.500000000000000 ]
  mass: 12.010700
- symbol: C  # 2
  coordinates: [  0.435471744743399,  0.453896877713960,  0.500000000000000 ]
  mass: 12.010700
- symbol: C  # 3
  coordinates: [  0.505190513085408,  0.551027762399455,  0.500000000000000 ]
  mass: 12.010700
- symbol: C  # 4
  coordinates: [  0.564751946807799,  0.513004201025657,  0.500000000000000 ]
  mass: 12.010700
- symbol: C  # 5
  coordinates: [  0.559045434979822,  0.445587552541795,  0.500000000000000 ]
  mass: 12.010700
- symbol: C  # 6
  coordinates: [  0.494624275558127,  0.415580787670565,  0.500000000000000 ]
  mass: 12.010700
- symbol: H  # 7
  coordinates: [  0.394127713133017,  0.551397598840611,  0.500000000000000 ]
  mass: 1.007940
- symbol: H  # 8
  coordinates: [  0.384833755608080,  0.431269015549485,  0.500000000000000 ]
  mass: 1.007940
- symbol: H  # 9
  coordinates: [  0.614682163229291,  0.536903175731434,  0.500000000000000 ]
  mass: 1.007940
- symbol: H  # 10
  coordinates: [  0.490609437648058,  0.362852716104316,  0.500000000000000 ]
  mass: 1.007940
- symbol: H  # 11
  coordinates: [  0.605609579079735,  0.416163376770230,  0.500000000000000 ]
  mass: 1.007940
- symbol: H  # 12
  coordinates: [  0.468309424025795,  0.637700528981210,  0.500000000000000 ]
  mass: 1.007940
- symbol: O  # 13
  coordinates: [  0.513377095857408,  0.617265067416081,  0.500000000000000 ]
  mass: 15.999400
phonon:
- q-position: [    0.0000000,    0.0000000,    0.0000000 ]
  weight: 1    
  band:
  - # 1
    frequency:    -0.3243620289
    eigenvector:
    - # atom 1
      - [ -0.00000000003223,  0.00000000000000 ]
      - [ -0.00000000000404,  0.00000000000000 ]
      - [ -0.38749450617501,  0.00000000000000 ]
    - # atom 2
      - [ -0.00000000002810,  0.00000000000000 ]
      - [ -0.00000000000433,  0.00000000000000 ]
      - [ -0.52081232603140,  0.00000000000000 ]
    - # atom 3
      - [ -0.00000000003404,  0.00000000000000 ]
      - [ -0.00000000000031,  0.00000000000000 ]
      - [  0.08921131466288,  0.00000000000000 ]
    - # atom 4
      - [ -0.00000000003171,  0.00000000000000 ]
      - [  0.00000000000313,  0.00000000000000 ]
      - [  0.42901480547429,  0.00000000000000 ]
    - # atom 5
      - [ -0.00000000002759,  0.00000000000000 ]
      - [  0.00000000000280,  0.00000000000000 ]
      - [  0.29037518635450,  0.00000000000000 ]
    - # atom 6
      - [ -0.00000000002576,  0.00000000000000 ]
      - [ -0.00000000000092,  0.00000000000000 ]
      - [ -0.18338186696663,  0.00000000000000 ]
    - # atom 7
      - [ -0.00000000000987,  0.00000000000000 ]
      - [ -0.00000000000195,  0.00000000000000 ]
      - [ -0.18934486668393,  0.00000000000000 ]
    - # atom 8
      - [ -0.00000000000774,  0.00000000000000 ]
      - [ -0.00000000000210,  0.00000000000000 ]
      - [ -0.25853786992429,  0.00000000000000 ]
    - # atom 9
      - [ -0.00000000000961,  0.00000000000000 ]
      - [  0.00000000000174,  0.00000000000000 ]
      - [  0.23109769522756,  0.00000000000000 ]
    - # atom 10
      - [ -0.00000000000653,  0.00000000000000 ]
      - [ -0.00000000000033,  0.00000000000000 ]
      - [ -0.08354274640979,  0.00000000000000 ]
    - # atom 11
      - [ -0.00000000000747,  0.00000000000000 ]
      - [  0.00000000000159,  0.00000000000000 ]
      - [  0.16124712482460,  0.00000000000000 ]
    - # atom 12
      - [ -0.00000000001139,  0.00000000000000 ]
      - [ -0.00000000000070,  0.00000000000000 ]
      - [ -0.00715861558459,  0.00000000000000 ]
    - # atom 13
      - [ -0.00000000004395,  0.00000000000000 ]
      - [  0.00000000000019,  0.00000000000000 ]
      - [  0.28198011240570,  0.00000000000000 ]
  - # 2
    frequency:    -0.0000012977
    eigenvector:
    - # atom 1
      - [  0.00000000003040,  0.00000000000000 ]
      - [  0.30768119050937,  0.00000000000000 ]
      - [  0.18153418518614,  0.00000000000000 ]
    - # atom 2
      - [  0.00000000002961,  0.00000000000000 ]
      - [  0.30768119050943,  0.00000000000000 ]
      - [  0.18153418521964,  0.00000000000000 ]
    - # atom 3
      - [  0.00000000003074,  0.00000000000000 ]
      - [  0.30768119050866,  0.00000000000000 ]
      - [  0.18153418518937,  0.00000000000000 ]
    - # atom 4
      - [  0.00000000003030,  0.00000000000000 ]
      - [  0.30768119050800,  0.00000000000000 ]
      - [  0.18153418522606,  0.00000000000000 ]
    - # atom 5
      - [  0.00000000002951,  0.00000000000000 ]
      - [  0.30768119050806,  0.00000000000000 ]
      - [  0.18153418525927,  0.00000000000000 ]
    - # atom 6
      - [  0.00000000002916,  0.00000000000000 ]
      - [  0.30768119050877,  0.00000000000000 ]
      - [  0.18153418525634,  0.00000000000000 ]
    - # atom 7
      - [  0.00000000000891,  0.00000000000000 ]
      - [  0.08913209774008,  0.00000000000000 ]
      - [  0.05258859895792,  0.00000000000000 ]
    - # atom 8
      - [  0.00000000000850,  0.00000000000000 ]
      - [  0.08913209774011,  0.00000000000000 ]
      - [  0.05258859897514,  0.00000000000000 ]
    - # atom 9
      - [  0.00000000000886,  0.00000000000000 ]
      - [  0.08913209773937,  0.00000000000000 ]
      - [  0.05258859897835,  0.00000000000000 ]
    - # atom 10
      - [  0.00000000000827,  0.00000000000000 ]
      - [  0.08913209773977,  0.00000000000000 ]
      - [  0.05258859899411,  0.00000000000000 ]
    - # atom 11
      - [  0.00000000000845,  0.00000000000000 ]
      - [  0.08913209773940,  0.00000000000000 ]
      - [  0.05258859899567,  0.00000000000000 ]
    - # atom 12
      - [  0.00000000000920,  0.00000000000000 ]
      - [  0.08913209773984,  0.00000000000000 ]
      - [  0.05258859895110,  0.00000000000000 ]
    - # atom 13
      - [  0.00000000003638,  0.00000000000000 ]
      - [  0.35511468808555,  0.00000000000000 ]
      - [  0.20952030064791,  0.00000000000000 ]
  - # 3
    frequency:     0.0000004680
    eigenvector:
    - # atom 1
      - [ -0.00000000002057,  0.00000000000000 ]
      - [  0.18153418521899,  0.00000000000000 ]
      - [ -0.30768119049013,  0.00000000000000 ]
    - # atom 2
      - [ -0.00000000002945,  0.00000000000000 ]
      - [  0.18153418521960,  0.00000000000000 ]
      - [ -0.30768119051432,  0.00000000000000 ]
    - # atom 3
      - [ -0.00000000001668,  0.00000000000000 ]
      - [  0.18153418521095,  0.00000000000000 ]
      - [ -0.30768119049281,  0.00000000000000 ]
    - # atom 4
      - [ -0.00000000002168,  0.00000000000000 ]
      - [  0.18153418520355,  0.00000000000000 ]
      - [ -0.30768119051965,  0.00000000000000 ]
    - # atom 5
      - [ -0.00000000003054,  0.00000000000000 ]
      - [  0.18153418520426,  0.00000000000000 ]
      - [ -0.30768119054363,  0.00000000000000 ]
    - # atom 6
      - [ -0.00000000003449,  0.00000000000000 ]
      - [  0.18153418521226,  0.00000000000000 ]
      - [ -0.30768119054117,  0.00000000000000 ]
    - # atom 7
      - [ -0.00000000000482,  0.00000000000000 ]
      - [  0.05258859897741,  0.00000000000000 ]
      - [ -0.08913209772827,  0.00000000000000 ]
    - # atom 8
      - [ -0.00000000000939,  0.00000000000000 ]
      - [  0.05258859897774,  0.00000000000000 ]
      - [ -0.08913209774071,  0.00000000000000 ]
    - # atom 9
      - [ -0.00000000000537,  0.00000000000000 ]
      - [  0.05258859896948,  0.00000000000000 ]
      - [ -0.08913209774339,  0.00000000000000 ]
    - # atom 10
      - [ -0.00000000001199,  0.00000000000000 ]
      - [  0.05258859897394,  0.00000000000000 ]
      - [ -0.08913209775459,  0.00000000000000 ]
    - # atom 11
      - [ -0.00000000000997,  0.00000000000000 ]
      - [  0.05258859896980,  0.00000000000000 ]
      - [ -0.08913209775590,  0.00000000000000 ]
    - # atom 12
      - [ -0.00000000000154,  0.00000000000000 ]
      - [  0.05258859897474,  0.00000000000000 ]
      - [ -0.08913209772347,  0.00000000000000 ]
    - # atom 13
      - [ -0.00000000000921,  0.00000000000000 ]
      - [  0.20952030070845,  0.00000000000000 ]
      - [ -0.35511468804080,  0.00000000000000 ]
  - # 4
    frequency:     0.0000017458
    eigenvector:
    - # atom 1
      - [ -0.35724274015320,  0.00000000000000 ]
      - [  0.00000000002020,  0.00000000000000 ]
      - [  0.00000000006878,  0.00000000000000 ]
    - # atom 2
      - [ -0.35724274015976,  0.00000000000000 ]
      - [  0.00000000002066,  0.00000000000000 ]
      - [  0.00000000008039,  0.00000000000000 ]
    - # atom 3
      - [ -0.35724274015034,  0.00000000000000 ]
      - [  0.00000000001427,  0.00000000000000 ]
      - [  0.00000000002699,  0.00000000000000 ]
    - # atom 4
      - [ -0.35724274015402,  0.00000000000000 ]
      - [  0.00000000000881,  0.00000000000000 ]
      - [ -0.00000000000288,  0.00000000000000 ]
    - # atom 5
      - [ -0.35724274016057,  0.00000000000000 ]
      - [  0.00000000000933,  0.00000000000000 ]
      - [  0.00000000000920,  0.00000000000000 ]
    - # atom 6
      - [ -0.35724274016348,  0.00000000000000 ]
      - [  0.00000000001524,  0.00000000000000 ]
      - [  0.00000000005074,  0.00000000000000 ]
    - # atom 7
      - [ -0.10348957236951,  0.00000000000000 ]
      - [  0.00000000000708,  0.00000000000000 ]
      - [  0.00000000002670,  0.00000000000000 ]
    - # atom 8
      - [ -0.10348957237289,  0.00000000000000 ]
      - [  0.00000000000733,  0.00000000000000 ]
      - [  0.00000000003273,  0.00000000000000 ]
    - # atom 9
      - [ -0.10348957236992,  0.00000000000000 ]
      - [  0.00000000000123,  0.00000000000000 ]
      - [ -0.00000000001020,  0.00000000000000 ]
    - # atom 10
      - [ -0.10348957237481,  0.00000000000000 ]
      - [  0.00000000000452,  0.00000000000000 ]
      - [  0.00000000001735,  0.00000000000000 ]
    - # atom 11
      - [ -0.10348957237331,  0.00000000000000 ]
      - [  0.00000000000147,  0.00000000000000 ]
      - [ -0.00000000000411,  0.00000000000000 ]
    - # atom 12
      - [ -0.10348957236709,  0.00000000000000 ]
      - [  0.00000000000511,  0.00000000000000 ]
      - [  0.00000000001075,  0.00000000000000 ]
    - # atom 13
      - [ -0.41231686612804,  0.00000000000000 ]
      - [  0.00000000001560,  0.00000000000000 ]
      - [  0.00000000001553,  0.00000000000000 ]
  - # 5
    frequency:     0.1057177684
    eigenvector:
    - # atom 1
      - [  0.00000000000000,  0.00000000000000 ]
      - [ -0.00000000001837,  0.00000000000000 ]
      - [ -0.22468476875235,  0.00000000000000 ]
    - # atom 2
      - [ -0.00000000000037,  0.00000000000000 ]
      - [ -0.00000000001835,  0.00000000000000 ]
      - [  0.09559481700091,  0.00000000000000 ]
    - # atom 3
      - [  0.00000000000016,  0.00000000000000 ]
      - [ -0.00000000001870,  0.00000000000000 ]
      - [ -0.21037302545159,  0.00000000000000 ]
    - # atom 4
      - [ -0.00000000000004,  0.00000000000000 ]
      - [ -0.00000000001901,  0.00000000000000 ]
      - [  0.12382521230007,  0.00000000000000 ]
    - # atom 5
      - [ -0.00000000000041,  0.00000000000000 ]
      - [ -0.00000000001898,  0.00000000000000 ]
      - [  0.44141793608445,  0.00000000000000 ]
    - # atom 6
      - [ -0.00000000000057,  0.00000000000000 ]
      - [ -0.00000000001865,  0.00000000000000 ]
      - [  0.42999302252108,  0.00000000000000 ]
    - # atom 7
      - [  0.00000000000005,  0.00000000000000 ]
      - [ -0.00000000000525,  0.00000000000000 ]
      - [ -0.14082564141129,  0.00000000000000 ]
    - # atom 8
      - [ -0.00000000000014,  0.00000000000000 ]
      - [ -0.00000000000524,  0.00000000000000 ]
      - [  0.02386792012584,  0.00000000000000 ]
    - # atom 9
      - [  0.00000000000002,  0.00000000000000 ]
      - [ -0.00000000000558,  0.00000000000000 ]
      - [  0.03750972094420,  0.00000000000000 ]
    - # atom 10
      - [ -0.00000000000025,  0.00000000000000 ]
      - [ -0.00000000000540,  0.00000000000000 ]
      - [  0.19669148774307,  0.00000000000000 ]
    - # atom 11
      - [ -0.00000000000016,  0.00000000000000 ]
      - [ -0.00000000000557,  0.00000000000000 ]
      - [  0.20309400466724,  0.00000000000000 ]
    - # atom 12
      - [  0.00000000000018,  0.00000000000000 ]
      - [ -0.00000000000536,  0.00000000000000 ]
      - [ -0.21111236149424,  0.00000000000000 ]
    - # atom 13
      - [  0.00000000000060,  0.00000000000000 ]
      - [ -0.00000000002164,  0.00000000000000 ]
      - [ -0.59559502649637,  0.00000000000000 ]
  - # 6
    frequency:     0.1320826167
    eigenvector:
    - # atom 1
      - [ -0.06321451522494,  0.00000000000000 ]
      - [ -0.24561393464860,  0.00000000000000 ]
      - [ -0.00000000000373,  0.00000000000000 ]
    - # atom 2
      - [  0.22336803812927,  0.00000000000000 ]
      - [ -0.26557236661173,  0.00000000000000 ]
      - [ -0.00000000000141,  0.00000000000000 ]
    - # atom 3
      - [ -0.18864161255674,  0.00000000000000 ]
      - [  0.01378785909408,  0.00000000000000 ]
      - [ -0.00000000001059,  0.00000000000000 ]
    - # atom 4
      - [ -0.02743970609810,  0.00000000000000 ]
      - [  0.25226675929950,  0.00000000000000 ]
      - [ -0.00000000001506,  0.00000000000000 ]
    - # atom 5
      - [  0.25850385303494,  0.00000000000000 ]
      - [  0.22941471760625,  0.00000000000000 ]
      - [ -0.00000000001266,  0.00000000000000 ]
    - # atom 6
      - [  0.38581938228751,  0.00000000000000 ]
      - [ -0.02870838273117,  0.00000000000000 ]
      - [ -0.00000000000585,  0.00000000000000 ]
    - # atom 7
      - [ -0.05512189114390,  0.00000000000000 ]
      - [ -0.12498342362950,  0.00000000000000 ]
      - [ -0.00000000000007,  0.00000000000000 ]
    - # atom 8
      - [  0.09250677746052,  0.00000000000000 ]
      - [ -0.13567502763652,  0.00000000000000 ]
      - [  0.00000000000114,  0.00000000000000 ]
    - # atom 9
      - [ -0.03731203448351,  0.00000000000000 ]
      - [  0.13101519240668,  0.00000000000000 ]
      - [ -0.00000000000590,  0.00000000000000 ]
    - # atom 10
      - [  0.17647290850194,  0.00000000000000 ]
      - [ -0.01297015491145,  0.00000000000000 ]
      - [ -0.00000000000116,  0.00000000000000 ]
    - # atom 11
      - [  0.11103933280726,  0.00000000000000 ]
      - [  0.12049884863548,  0.00000000000000 ]
      - [ -0.00000000000468,  0.00000000000000 ]
    - # atom 12
      - [ -0.16099180266216,  0.00000000000000 ]
      - [ -0.03869453914780,  0.00000000000000 ]
      - [ -0.00000000000278,  0.00000000000000 ]
    - # atom 13
      - [ -0.54157640151156,  0.00000000000000 ]
      - [  0.05375414659356,  0.00000000000000 ]
      - [ -0.00000000001526,  0.00000000000000 ]
  - # 7
    frequency:     6.5591568020
    eigenvector:
    - # atom 1
      - [ -0.00000000000000,  0.00000000000000 ]
      - [ -0.00000000000000,  0.00000000000000 ]
      - [  0.41901460196043,  0.00000000000000 ]
    - # atom 2
      - [ -0.00000000000000,  0.00000000000000 ]
      - [ -0.00000000000000,  0.00000000000000 ]
      - [  0.00126196151921,  0.00000000000000 ]
    - # atom 3
      - [  0.00000000000000,  0.00000000000000 ]
      - [ -0.00000000000000,  0.00000000000000 ]
      - [  0.22133630299640,  0.00000000000000 ]
    - # atom 4
      - [ -0.00000000000000,  0.00000000000000 ]
      - [ -0.00000000000001,  0.00000000000000 ]
      - [  0.41369557944164,  0.00000000000000 ]
    - # atom 5
      - [ -0.00000000000000,  0.00000000000000 ]
      - [ -0.00000000000000,  0.00000000000000 ]
      - [  0.00698072367745,  0.00000000000000 ]
    - # atom 6
      - [ -0.00000000000001,  0.00000000000000 ]
      - [ -0.00000000000000,  0.00000000000000 ]
      - [ -0.42234263135233,  0.00000000000000 ]
    - # atom 7
      - [  0.00000000000000,  0.00000000000000 ]
      - [  0.00000000000000,  0.00000000000000 ]
      - [  0.17231028782089,  0.00000000000000 ]
    - # atom 8
      - [ -0.00000000000000,  0.00000000000000 ]
      - [  0.00000000000000,  0.00000000000000 ]
      - [ -0.02273740415846,  0.00000000000000 ]
    - # atom 9
      - [  0.00000000000000,  0.00000000000000 ]
      - [ -0.00000000000000,  0.00000000000000 ]
      - [  0.15831120016886,  0.00000000000000 ]
    - # atom 10
      - [ -0.00000000000000,  0.00000000000000 ]
      - [ -0.00000000000000,  0.00000000000000 ]
      - [ -0.27025137048857,  0.00000000000000 ]
    - # atom 11
      - [ -0.00000000000000,  0.00000000000000 ]
      - [ -0.00000000000000,  0.00000000000000 ]
      - [ -0.02193158321743,  0.00000000000000 ]
    - # atom 12
      - [  0.00000000000000,  0.00000000000000 ]
      - [ -0.00000000000000,  0.00000000000000 ]
      - [ -0.19118662901796,  0.00000000000000 ]
    - # atom 13
      - [  0.00000000000000,  0.00000000000000 ]
      - [ -0.00000000000000,  0.00000000000000 ]
      - [ -0.51042136017061,  0.00000000000000 ]
  - # 8
    frequency:    11.0831370682
    eigenvector:
    - # atom 1
      - [  0.00000000000000,  0.00000000000000 ]
      - [ -0.00000000000000,  0.00000000000000 ]
      - [  0.02433275577232,  0.00000000000000 ]
    - # atom 2
      - [  0.00000000000000,  0.00000000000000 ]
      - [ -0.00000000000000,  0.00000000000000 ]
      - [  0.00038417429415,  0.00000000000000 ]
    - # atom 3
      - [ -0.00000000000000,  0.00000000000000 ]
      - [ -0.00000000000000,  0.00000000000000 ]
      - [ -0.01234329192946,  0.00000000000000 ]
    - # atom 4
      - [ -0.00000000000000,  0.00000000000000 ]
      - [ -0.00000000000000,  0.00000000000000 ]
      - [ -0.06977799569846,  0.00000000000000 ]
    - # atom 5
      - [ -0.00000000000000,  0.00000000000000 ]
      - [ -0.00000000000000,  0.00000000000000 ]
      - [ -0.02219272551716,  0.00000000000000 ]
    - # atom 6
      - [  0.00000000000000,  0.00000000000000 ]
      - [ -0.00000000000000,  0.00000000000000 ]
      - [  0.02227087046125,  0.00000000000000 ]
    - # atom 7
      - [ -0.00000000000000,  0.00000000000000 ]
      - [ -0.00000000000000,  0.00000000000000 ]
      - [  0.06552715095863,  0.00000000000000 ]
    - # atom 8
      - [  0.00000000000000,  0.00000000000000 ]
      - [  0.00000000000000,  0.00000000000000 ]
      - [  0.01263123791895,  0.00000000000000 ]
    - # atom 9
      - [ -0.00000000000000,  0.00000000000000 ]
      - [ -0.00000000000000,  0.00000000000000 ]
      - [ -0.06862321883664,  0.00000000000000 ]
    - # atom 10
      - [ -0.00000000000000,  0.00000000000000 ]
      - [ -0.00000000000000,  0.00000000000000 ]
      - [  0.01102729653772,  0.00000000000000 ]
    - # atom 11
      - [ -0.00000000000000,  0.00000000000000 ]
      - [ -0.00000000000000,  0.00000000000000 ]
      - [ -0.03088484448301,  0.00000000000000 ]
    - # atom 12
      - [  0.00000000000000,  0.00000000000000 ]
      - [  0.00000000000000,  0.00000000000000 ]
      - [ -0.94811654364981,  0.00000000000000 ]
    - # atom 13
      - [  0.00000000000000,  0.00000000000000 ]
      - [ -0.00000000000000,  0.00000000000000 ]
      - [  0.29023262747759,  0.00000000000000 ]
  - # 9
    frequency:    11.7677841954
    eigenvector:
    - # atom 1
      - [  0.34150624836748,  0.00000000000000 ]
      - [  0.06245366171166,  0.00000000000000 ]
      - [  0.00000000000000,  0.00000000000000 ]
    - # atom 2
      - [ -0.03487388486932,  0.00000000000000 ]
      - [  0.15914571712953,  0.00000000000000 ]
      - [ -0.00000000000000,  0.00000000000000 ]
    - # atom 3
      - [  0.34020733407376,  0.00000000000000 ]
      - [ -0.01162668572879,  0.00000000000000 ]
      - [  0.00000000000000,  0.00000000000000 ]
    - # atom 4
      - [  0.31303425650424,  0.00000000000000 ]
      - [ -0.11195500360530,  0.00000000000000 ]
      - [ -0.00000000000000,  0.00000000000000 ]
    - # atom 5
      - [ -0.06316986050467,  0.00000000000000 ]
      - [ -0.15056248655023,  0.00000000000000 ]
      - [  0.00000000000000,  0.00000000000000 ]
    - # atom 6
      - [ -0.14555387509841,  0.00000000000000 ]
      - [  0.00684587062304,  0.00000000000000 ]
      - [  0.00000000000000,  0.00000000000000 ]
    - # atom 7
      - [  0.14134074983353,  0.00000000000000 ]
      - [  0.08382450937243,  0.00000000000000 ]
      - [ -0.00000000000000,  0.00000000000000 ]
    - # atom 8
      - [ -0.04028170753822,  0.00000000000000 ]
      - [  0.11136730794712,  0.00000000000000 ]
      - [ -0.00000000000000,  0.00000000000000 ]
    - # atom 9
      - [  0.13277831810564,  0.00000000000000 ]
      - [ -0.11542101061325,  0.00000000000000 ]
      - [ -0.00000000000000,  0.00000000000000 ]
    - # atom 10
      - [ -0.07903256893592,  0.00000000000000 ]
      - [  0.00475307283680,  0.00000000000000 ]
      - [  0.00000000000000,  0.00000000000000 ]
    - # atom 11
      - [ -0.05606820543609,  0.00000000000000 ]
      - [ -0.10105326950818,  0.00000000000000 ]
      - [ -0.00000000000000,  0.00000000000000 ]
    - # atom 12
      - [ -0.25903239061206,  0.00000000000000 ]
      - [ -0.19615338801133,  0.00000000000000 ]
      - [ -0.00000000000000,  0.00000000000000 ]
    - # atom 13
      - [ -0.61058384635715,  0.00000000000000 ]
      - [  0.09297717990219,  0.00000000000000 ]
      - [ -0.00000000000000,  0.00000000000000 ]
  - # 10
    frequency:    12.1707296505
    eigenvector:
    - # atom 1
      - [  0.00000000000000,  0.00000000000000 ]
      - [  0.00000000000000,  0.00000000000000 ]
      - [ -0.42196586173632,  0.00000000000000 ]
    - # atom 2
      - [ -0.00000000000000,  0.00000000000000 ]
      - [  0.00000000000000,  0.00000000000000 ]
      - [  0.42075562373230,  0.00000000000000 ]
    - # atom 3
      - [  0.00000000000000,  0.00000000000000 ]
      - [ -0.00000000000000,  0.00000000000000 ]
      - [  0.01021402076545,  0.00000000000000 ]
    - # atom 4
      - [  0.00000000000000,  0.00000000000000 ]
      - [  0.00000000000000,  0.00000000000000 ]
      - [  0.42724345168832,  0.00000000000000 ]
    - # atom 5
      - [  0.00000000000000,  0.00000000000000 ]
      - [  0.00000000000000,  0.00000000000000 ]
      - [ -0.42655443442267,  0.00000000000000 ]
    - # atom 6
      - [ -0.00000000000000,  0.00000000000000 ]
      - [  0.00000000000001,  0.00000000000000 ]
      - [ -0.00128745065831,  0.00000000000000 ]
    - # atom 7
      - [  0.00000000000000,  0.00000000000000 ]
      - [  0.00000000000000,  0.00000000000000 ]
      - [ -0.25880812707765,  0.00000000000000 ]
    - # atom 8
      - [ -0.00000000000000,  0.00000000000000 ]
      - [ -0.00000000000000,  0.00000000000000 ]
      - [  0.27055434789196,  0.00000000000000 ]
    - # atom 9
      - [  0.00000000000000,  0.00000000000000 ]
      - [  0.00000000000000,  0.00000000000000 ]
      - [  0.24914333548923,  0.00000000000000 ]
    - # atom 10
      - [  0.00000000000000,  0.00000000000000 ]
      - [  0.00000000000000,  0.00000000000000 ]
      - [  0.00253394684507,  0.00000000000000 ]
    - # atom 11
      - [  0.00000000000000,  0.00000000000000 ]
      - [  0.00000000000000,  0.00000000000000 ]
      - [ -0.27418276194364,  0.00000000000000 ]
    - # atom 12
      - [ -0.00000000000000,  0.00000000000000 ]
      - [ -0.00000000000000,  0.00000000000000 ]
      - [ -0.05296845742704,  0.00000000000000 ]
    - # atom 13
      - [ -0.00000000000000,  0.00000000000000 ]
      - [ -0.00000000000000,  0.00000000000000 ]
      - [  0.00871272643579,  0.00000000000000 ]
  - # 11
    frequency:    14.8780041346
    eigenvector:
    - # atom 1
      - [  0.00000000000000,  0.00000000000000 ]
      - [  0.00000000000000,  0.00000000000000 ]
      - [  0.02992345901173,  0.00000000000000 ]
    - # atom 2
      - [  0.00000000000000,  0.00000000000000 ]
      - [ -0.00000000000000,  0.00000000000000 ]
      - [ -0.25836814555841,  0.00000000000000 ]
    - # atom 3
      - [ -0.00000000000000,  0.00000000000000 ]
      - [  0.00000000000000,  0.00000000000000 ]
      - [  0.60429325243815,  0.00000000000000 ]
    - # atom 4
      - [ -0.00000000000000,  0.00000000000000 ]
      - [ -0.00000000000000,  0.00000000000000 ]
      - [  0.01571710753207,  0.00000000000000 ]
    - # atom 5
      - [ -0.00000000000000,  0.00000000000000 ]
      - [  0.00000000000000,  0.00000000000000 ]
      - [ -0.24722512878461,  0.00000000000000 ]
    - # atom 6
      - [  0.00000000000000,  0.00000000000000 ]
      - [ -0.00000000000000,  0.00000000000000 ]
      - [  0.37960594266998,  0.00000000000000 ]
    - # atom 7
      - [ -0.00000000000000,  0.00000000000000 ]
      - [ -0.00000000000000,  0.00000000000000 ]
      - [ -0.24617676968508,  0.00000000000000 ]
    - # atom 8
      - [  0.00000000000000,  0.00000000000000 ]
      - [  0.00000000000000,  0.00000000000000 ]
      - [ -0.31058352510502,  0.00000000000000 ]
    - # atom 9
      - [ -0.00000000000000,  0.00000000000000 ]
      - [ -0.00000000000000,  0.00000000000000 ]
      - [ -0.24436344749262,  0.00000000000000 ]
    - # atom 10
      - [ -0.00000000000000,  0.00000000000000 ]
      - [ -0.00000000000000,  0.00000000000000 ]
      - [  0.11167866376041,  0.00000000000000 ]
    - # atom 11
      - [ -0.00000000000000,  0.00000000000000 ]
      - [ -0.00000000000000,  0.00000000000000 ]
      - [ -0.30526630956462,  0.00000000000000 ]
    - # atom 12
      - [  0.00000000000000,  0.00000000000000 ]
      - [  0.00000000000000,  0.00000000000000 ]
      - [ -0.04496194904717,  0.00000000000000 ]
    - # atom 13
      - [  0.00000000000000,  0.00000000000000 ]
      - [  0.00000000000001,  0.00000000000000 ]
      - [ -0.19300866952224,  0.00000000000000 ]
  - # 12
    frequency:    15.5423545320
    eigenvector:
    - # atom 1
      - [ -0.20430518581076,  0.00000000000000 ]
      - [  0.09768971548734,  0.00000000000000 ]
      - [  0.00000000000000,  0.00000000000000 ]
    - # atom 2
      - [ -0.18666354848394,  0.00000000000000 ]
      - [  0.18203459786739,  0.00000000000000 ]
      - [ -0.00000000000001,  0.00000000000000 ]
    - # atom 3
      - [ -0.02336339426015,  0.00000000000000 ]
      - [ -0.35378364036972,  0.00000000000000 ]
      - [  0.00000000000001,  0.00000000000000 ]
    - # atom 4
      - [  0.22926873307046,  0.00000000000000 ]
      - [  0.06500906850479,  0.00000000000000 ]
      - [ -0.00000000000000,  0.00000000000000 ]
    - # atom 5
      - [  0.21095880358913,  0.00000000000000 ]
      - [  0.15218905292256,  0.00000000000000 ]
      - [ -0.00000000000000,  0.00000000000000 ]
    - # atom 6
      - [  0.03128713985952,  0.00000000000000 ]
      - [  0.47189484062817,  0.00000000000000 ]
      - [  0.00000000000000,  0.00000000000000 ]
    - # atom 7
      - [  0.00332242120213,  0.00000000000000 ]
      - [  0.11814648561010,  0.00000000000000 ]
      - [  0.00000000000000,  0.00000000000000 ]
    - # atom 8
      - [ -0.01642747027772,  0.00000000000000 ]
      - [ -0.02434247672451,  0.00000000000000 ]
      - [ -0.00000000000000,  0.00000000000000 ]
    - # atom 9
      - [  0.01312242762926,  0.00000000000000 ]
      - [  0.12108689237160,  0.00000000000000 ]
      - [ -0.00000000000000,  0.00000000000000 ]
    - # atom 10
      - [  0.00859785624574,  0.00000000000000 ]
      - [  0.13682409906436,  0.00000000000000 ]
      - [  0.00000000000000,  0.00000000000000 ]
    - # atom 11
      - [  0.01119848967132,  0.00000000000000 ]
      - [ -0.02882725882698,  0.00000000000000 ]
      - [ -0.00000000000000,  0.00000000000000 ]
    - # atom 12
      - [ -0.00652969870579,  0.00000000000000 ]
      - [ -0.13601923181099,  0.00000000000000 ]
      - [ -0.00000000000000,  0.00000000000000 ]
    - # atom 13
      - [ -0.05287876887900,  0.00000000000000 ]
      - [ -0.57978526433708,  0.00000000000000 ]
      - [  0.00000000000000,  0.00000000000000 ]
  - # 13
    frequency:    18.3025092671
    eigenvector:
    - # atom 1
      - [  0.21289553582764,  0.00000000000000 ]
      - [ -0.35318638873076,  0.00000000000000 ]
      - [  0.00000000000000,  0.00000000000000 ]
    - # atom 2
      - [ -0.36325862907681,  0.00000000000000 ]
      - [ -0.34916462986523,  0.00000000000000 ]
      - [ -0.00000000000000,  0.00000000000000 ]
    - # atom 3
      - [  0.16172607866679,  0.00000000000000 ]
      - [ -0.01288191190745,  0.00000000000000 ]
      - [  0.00000000000000,  0.00000000000000 ]
    - # atom 4
      - [  0.26512642154613,  0.00000000000000 ]
      - [  0.31607623710898,  0.00000000000000 ]
      - [ -0.00000000000000,  0.00000000000000 ]
    - # atom 5
      - [ -0.30489615928060,  0.00000000000000 ]
      - [  0.39388103280469,  0.00000000000000 ]
      - [ -0.00000000000000,  0.00000000000000 ]
    - # atom 6
      - [ -0.17336568127535,  0.00000000000000 ]
      - [  0.01249592799316,  0.00000000000000 ]
      - [  0.00000000000000,  0.00000000000000 ]
    - # atom 7
      - [  0.09560519429287,  0.00000000000000 ]
      - [ -0.05008336218868,  0.00000000000000 ]
      - [  0.00000000000000,  0.00000000000000 ]
    - # atom 8
      - [ -0.12838279328361,  0.00000000000000 ]
      - [ -0.05223221847328,  0.00000000000000 ]
      - [ -0.00000000000000,  0.00000000000000 ]
    - # atom 9
      - [  0.10197904251194,  0.00000000000000 ]
      - [  0.03902827391305,  0.00000000000000 ]
      - [ -0.00000000000000,  0.00000000000000 ]
    - # atom 10
      - [  0.12863350718150,  0.00000000000000 ]
      - [ -0.00925842549136,  0.00000000000000 ]
      - [  0.00000000000000,  0.00000000000000 ]
    - # atom 11
      - [ -0.11934867122380,  0.00000000000000 ]
      - [  0.06759396864704,  0.00000000000000 ]
      - [ -0.00000000000000,  0.00000000000000 ]
    - # atom 12
      - [  0.04370436710914,  0.00000000000000 ]