mesh: [     1,     1,     1 ]
nqpoint: 1      
reciprocal_lattice:
- [   0.05136189,   0.00000000,   0.00000000 ] # a*
- [   0.00000000,   0.04850547,   0.00000000 ] # b*
- [   0.00000000,   0.00000000,   0.06666667 ] # c*
natom:   13     
lattice:
- [    19.4696899999999999,     0.0000000000000000,     0.0000000000000000 ] # a
- [     0.0000000000000000,    20.6162300000000016,     0.0000000000000000 ] # b
- [     0.0000000000000000,     0.0000000000000000,    15.0000000000000000 ] # c
atoms:
- symbol: C  # 1
  position: [  0.4404581354673818,  0.5214620083736656,  0.5000000000000000 ]
  mass: 12.010700
- symbol: C  # 2
  position: [  0.4354717447433993,  0.4538968777139598,  0.5000000000000000 ]
  mass: 12.010700
- symbol: C  # 3
  position: [  0.5051905130854080,  0.5510277623994554,  0.5000000000000000 ]
  mass: 12.010700
- symbol: C  # 4
  position: [  0.5647519468077987,  0.5130042010256566,  0.5000000000000000 ]
  mass: 12.010700
- symbol: C  # 5
  position: [  0.5590454349798215,  0.4455875525417947,  0.5000000000000000 ]
  mass: 12.010700
- symbol: C  # 6
  position: [  0.4946242755581268,  0.4155807876705650,  0.5000000000000000 ]
  mass: 12.010700
- symbol: H  # 7
  position: [  0.3941277131330173,  0.5513975988406110,  0.5000000000000000 ]
  mass: 1.007940
- symbol: H  # 8
  position: [  0.3848337556080804,  0.4312690155494855,  0.5000000000000000 ]
  mass: 1.007940
- symbol: H  # 9
  position: [  0.6146821632292908,  0.5369031757314335,  0.5000000000000000 ]
  mass: 1.007940
- symbol: H  # 10
  position: [  0.4906094376480585,  0.3628527161043164,  0.5000000000000000 ]
  mass: 1.007940
- symbol: H  # 11
  position: [  0.6056095790797348,  0.4161633767702304,  0.5000000000000000 ]
  mass: 1.007940
- symbol: H  # 12
  position: [  0.4683094240257947,  0.6377005289812103,  0.5000000000000000 ]
  mass: 1.007940
- symbol: O  # 13
  position: [  0.5133770958574082,  0.6172650674160810,  0.5000000000000000 ]
  mass: 15.999400
supercell_matrix:
- [    1,    0,    0 ]
- [    0,    1,    0 ]
- [    0,    0,    1 ]

phonon:
- q-position: [    0.0000000,    0.0000000,    0.0000000 ]
  weight: 1    
  band:
  - # 1
    frequency:    -0.4465747635
    eigenvector:
    - # atom 1
      - [  0.00000000000054,  0.00000000000000 ]
      - [  0.00000000000027,  0.00000000000000 ]
      - [  0.42200447433598,  0.00000000000000 ]
    - # atom 2
      - [  0.00000000000102,  0.00000000000000 ]
      - [  0.00000000000024,  0.00000000000000 ]
      - [  0.49427521900841,  0.00000000000000 ]
    - # atom 3
      - [  0.00000000000033,  0.00000000000000 ]
      - [  0.00000000000071,  0.00000000000000 ]
      - [ -0.04905671326859,  0.00000000000000 ]
    - # atom 4
      - [  0.00000000000060,  0.00000000000000 ]
      - [  0.00000000000111,  0.00000000000000 ]
      - [ -0.44441824737816,  0.00000000000000 ]
    - # atom 5
      - [  0.00000000000108,  0.00000000000000 ]
      - [  0.00000000000107,  0.00000000000000 ]
      - [ -0.36656161512647,  0.00000000000000 ]
    - # atom 6
      - [  0.00000000000130,  0.00000000000000 ]
      - [  0.00000000000064,  0.00000000000000 ]
      - [  0.10126397326655,  0.00000000000000 ]
    - # atom 7
      - [  0.00000000000010,  0.00000000000000 ]
      - [ -0.00000000000001,  0.00000000000000 ]
      - [  0.21197571738925,  0.00000000000000 ]
    - # atom 8
      - [  0.00000000000034,  0.00000000000000 ]
      - [ -0.00000000000003,  0.00000000000000 ]
      - [  0.24985665321159,  0.00000000000000 ]
    - # atom 9
      - [  0.00000000000013,  0.00000000000000 ]
      - [  0.00000000000042,  0.00000000000000 ]
      - [ -0.23410114735953,  0.00000000000000 ]
    - # atom 10
      - [  0.00000000000048,  0.00000000000000 ]
      - [  0.00000000000018,  0.00000000000000 ]
      - [  0.04600530283233,  0.00000000000000 ]
    - # atom 11
      - [  0.00000000000037,  0.00000000000000 ]
      - [  0.00000000000040,  0.00000000000000 ]
      - [ -0.19590332715809,  0.00000000000000 ]
    - # atom 12
      - [ -0.00000000000008,  0.00000000000000 ]
      - [  0.00000000000013,  0.00000000000000 ]
      - [  0.04723582957946,  0.00000000000000 ]
    - # atom 13
      - [ -0.00000000000016,  0.00000000000000 ]
      - [  0.00000000000088,  0.00000000000000 ]
      - [ -0.16786023245892,  0.00000000000000 ]
  - # 2
    frequency:    -0.1492061441
    eigenvector:
    - # atom 1
      - [  0.06320120552480,  0.00000000000000 ]
      - [  0.24561682930087,  0.00000000000000 ]
      - [ -0.00000000002063,  0.00000000000000 ]
    - # atom 2
      - [ -0.22335499633974,  0.00000000000000 ]
      - [  0.26556590399791,  0.00000000000000 ]
      - [ -0.00000000002012,  0.00000000000000 ]
    - # atom 3
      - [  0.18862578773932,  0.00000000000000 ]
      - [ -0.01377901923488,  0.00000000000000 ]
      - [ -0.00000000002152,  0.00000000000000 ]
    - # atom 4
      - [  0.02742920332569,  0.00000000000000 ]
      - [ -0.25226195165521,  0.00000000000000 ]
      - [ -0.00000000002187,  0.00000000000000 ]
    - # atom 5
      - [ -0.25849852205691,  0.00000000000000 ]
      - [ -0.22941467167458,  0.00000000000000 ]
      - [ -0.00000000002134,  0.00000000000000 ]
    - # atom 6
      - [ -0.38581206597007,  0.00000000000000 ]
      - [  0.02869905819628,  0.00000000000000 ]
      - [ -0.00000000002047,  0.00000000000000 ]
    - # atom 7
      - [  0.05512234454574,  0.00000000000000 ]
      - [  0.12498833081578,  0.00000000000000 ]
      - [ -0.00000000000590,  0.00000000000000 ]
    - # atom 8
      - [ -0.09250568794449,  0.00000000000000 ]
      - [  0.13568076884509,  0.00000000000000 ]
      - [ -0.00000000000563,  0.00000000000000 ]
    - # atom 9
      - [  0.03731658014660,  0.00000000000000 ]
      - [ -0.13102454222753,  0.00000000000000 ]
      - [ -0.00000000000653,  0.00000000000000 ]
    - # atom 10
      - [ -0.17646892146252,  0.00000000000000 ]
      - [  0.01296789082960,  0.00000000000000 ]
      - [ -0.00000000000581,  0.00000000000000 ]
    - # atom 11
      - [ -0.11105199433256,  0.00000000000000 ]
      - [ -0.12051553099287,  0.00000000000000 ]
      - [ -0.00000000000626,  0.00000000000000 ]
    - # atom 12
      - [  0.16100533509313,  0.00000000000000 ]
      - [  0.03872168584049,  0.00000000000000 ]
      - [ -0.00000000000630,  0.00000000000000 ]
    - # atom 13
      - [  0.54158573901550,  0.00000000000000 ]
      - [ -0.05375722455196,  0.00000000000000 ]
      - [ -0.00000000002548,  0.00000000000000 ]
  - # 3
    frequency:    -0.1021752924
    eigenvector:
    - # atom 1
      - [  0.00000000000000,  0.00000000000000 ]
      - [ -0.00000000003685,  0.00000000000000 ]
      - [ -0.14950767300574,  0.00000000000000 ]
    - # atom 2
      - [  0.00000000000034,  0.00000000000000 ]
      - [ -0.00000000003688,  0.00000000000000 ]
      - [  0.18975129034191,  0.00000000000000 ]
    - # atom 3
      - [ -0.00000000000015,  0.00000000000000 ]
      - [ -0.00000000003655,  0.00000000000000 ]
      - [ -0.22322951840678,  0.00000000000000 ]
    - # atom 4
      - [  0.00000000000004,  0.00000000000000 ]
      - [ -0.00000000003626,  0.00000000000000 ]
      - [  0.04278234049854,  0.00000000000000 ]
    - # atom 5
      - [  0.00000000000038,  0.00000000000000 ]
      - [ -0.00000000003629,  0.00000000000000 ]
      - [  0.38040905904516,  0.00000000000000 ]
    - # atom 6
      - [  0.00000000000053,  0.00000000000000 ]
      - [ -0.00000000003660,  0.00000000000000 ]
      - [  0.45641987206519,  0.00000000000000 ]
    - # atom 7
      - [ -0.00000000000004,  0.00000000000000 ]
      - [ -0.00000000001074,  0.00000000000000 ]
      - [ -0.10360506217224,  0.00000000000000 ]
    - # atom 8
      - [  0.00000000000013,  0.00000000000000 ]
      - [ -0.00000000001075,  0.00000000000000 ]
      - [  0.07103535791073,  0.00000000000000 ]
    - # atom 9
      - [ -0.00000000000002,  0.00000000000000 ]
      - [ -0.00000000001044,  0.00000000000000 ]
      - [ -0.00569044075555,  0.00000000000000 ]
    - # atom 10
      - [  0.00000000000023,  0.00000000000000 ]
      - [ -0.00000000001061,  0.00000000000000 ]
      - [  0.20869357164847,  0.00000000000000 ]
    - # atom 11
      - [  0.00000000000015,  0.00000000000000 ]
      - [ -0.00000000001045,  0.00000000000000 ]
      - [  0.16999180594148,  0.00000000000000 ]
    - # atom 12
      - [ -0.00000000000017,  0.00000000000000 ]
      - [ -0.00000000001064,  0.00000000000000 ]
      - [ -0.20686259703868,  0.00000000000000 ]
    - # atom 13
      - [ -0.00000000000055,  0.00000000000000 ]
      - [ -0.00000000004213,  0.00000000000000 ]
      - [ -0.63709908026481,  0.00000000000000 ]
  - # 4
    frequency:    -0.0000002610
    eigenvector:
    - # atom 1
      - [  0.00000000000000,  0.00000000000000 ]
      - [  0.21885672196376,  0.00000000000000 ]
      - [  0.28235458318413,  0.00000000000000 ]
    - # atom 2
      - [ -0.00000000000520,  0.00000000000000 ]
      - [  0.21885672196413,  0.00000000000000 ]
      - [  0.28235458318561,  0.00000000000000 ]
    - # atom 3
      - [  0.00000000000228,  0.00000000000000 ]
      - [  0.21885672195906,  0.00000000000000 ]
      - [  0.28235458318555,  0.00000000000000 ]
    - # atom 4
      - [ -0.00000000000065,  0.00000000000000 ]
      - [  0.21885672195473,  0.00000000000000 ]
      - [  0.28235458318845,  0.00000000000000 ]
    - # atom 5
      - [ -0.00000000000584,  0.00000000000000 ]
      - [  0.21885672195514,  0.00000000000000 ]
      - [  0.28235458318990,  0.00000000000000 ]
    - # atom 6
      - [ -0.00000000000815,  0.00000000000000 ]
      - [  0.21885672195983,  0.00000000000000 ]
      - [  0.28235458318849,  0.00000000000000 ]
    - # atom 7
      - [  0.00000000000067,  0.00000000000000 ]
      - [  0.06340055659925,  0.00000000000000 ]
      - [  0.08179523832386,  0.00000000000000 ]
    - # atom 8
      - [ -0.00000000000201,  0.00000000000000 ]
      - [  0.06340055659945,  0.00000000000000 ]
      - [  0.08179523832462,  0.00000000000000 ]
    - # atom 9
      - [  0.00000000000034,  0.00000000000000 ]
      - [  0.06340055659461,  0.00000000000000 ]
      - [  0.08179523832607,  0.00000000000000 ]
    - # atom 10
      - [ -0.00000000000353,  0.00000000000000 ]
      - [  0.06340055659722,  0.00000000000000 ]
      - [  0.08179523832611,  0.00000000000000 ]
    - # atom 11
      - [ -0.00000000000235,  0.00000000000000 ]
      - [  0.06340055659480,  0.00000000000000 ]
      - [  0.08179523832684,  0.00000000000000 ]
    - # atom 12
      - [  0.00000000000259,  0.00000000000000 ]
      - [  0.06340055659769,  0.00000000000000 ]
      - [  0.08179523832395,  0.00000000000000 ]
    - # atom 13
      - [  0.00000000000850,  0.00000000000000 ]
      - [  0.25259664533033,  0.00000000000000 ]
      - [  0.32588361859642,  0.00000000000000 ]
  - # 5
    frequency:     0.0000001978
    eigenvector:
    - # atom 1
      - [ -0.35724274015531,  0.00000000000000 ]
      - [ -0.00000000003771,  0.00000000000000 ]
      - [  0.00000000002653,  0.00000000000000 ]
    - # atom 2
      - [ -0.35724274015232,  0.00000000000000 ]
      - [ -0.00000000003792,  0.00000000000000 ]
      - [  0.00000000002673,  0.00000000000000 ]
    - # atom 3
      - [ -0.35724274015662,  0.00000000000000 ]
      - [ -0.00000000003500,  0.00000000000000 ]
      - [  0.00000000002566,  0.00000000000000 ]
    - # atom 4
      - [ -0.35724274015494,  0.00000000000000 ]
      - [ -0.00000000003252,  0.00000000000000 ]
      - [  0.00000000002499,  0.00000000000000 ]
    - # atom 5
      - [ -0.35724274015196,  0.00000000000000 ]
      - [ -0.00000000003275,  0.00000000000000 ]
      - [  0.00000000002520,  0.00000000000000 ]
    - # atom 6
      - [ -0.35724274015063,  0.00000000000000 ]
      - [ -0.00000000003545,  0.00000000000000 ]
      - [  0.00000000002607,  0.00000000000000 ]
    - # atom 7
      - [ -0.10348957237135,  0.00000000000000 ]
      - [ -0.00000000001148,  0.00000000000000 ]
      - [  0.00000000000783,  0.00000000000000 ]
    - # atom 8
      - [ -0.10348957236981,  0.00000000000000 ]
      - [ -0.00000000001160,  0.00000000000000 ]
      - [  0.00000000000794,  0.00000000000000 ]
    - # atom 9
      - [ -0.10348957237116,  0.00000000000000 ]
      - [ -0.00000000000881,  0.00000000000000 ]
      - [  0.00000000000704,  0.00000000000000 ]
    - # atom 10
      - [ -0.10348957236893,  0.00000000000000 ]
      - [ -0.00000000001032,  0.00000000000000 ]
      - [  0.00000000000760,  0.00000000000000 ]
    - # atom 11
      - [ -0.10348957236961,  0.00000000000000 ]
      - [ -0.00000000000892,  0.00000000000000 ]
      - [  0.00000000000715,  0.00000000000000 ]
    - # atom 12
      - [ -0.10348957237245,  0.00000000000000 ]
      - [ -0.00000000001059,  0.00000000000000 ]
      - [  0.00000000000751,  0.00000000000000 ]
    - # atom 13
      - [ -0.41231686614607,  0.00000000000000 ]
      - [ -0.00000000004000,  0.00000000000000 ]
      - [  0.00000000002933,  0.00000000000000 ]
  - # 6
    frequency:     0.0000005128
    eigenvector:
    - # atom 1
      - [  0.00000000004821,  0.00000000000000 ]
      - [ -0.28235458316851,  0.00000000000000 ]
      - [  0.21885672197782,  0.00000000000000 ]
    - # atom 2
      - [  0.00000000002720,  0.00000000000000 ]
      - [ -0.28235458316704,  0.00000000000000 ]
      - [  0.21885672193523,  0.00000000000000 ]
    - # atom 3
      - [  0.00000000005741,  0.00000000000000 ]
      - [ -0.28235458318753,  0.00000000000000 ]
      - [  0.21885672198733,  0.00000000000000 ]
    - # atom 4
      - [  0.00000000004559,  0.00000000000000 ]
      - [ -0.28235458320502,  0.00000000000000 ]
      - [  0.21885672195417,  0.00000000000000 ]
    - # atom 5
      - [  0.00000000002462,  0.00000000000000 ]
      - [ -0.28235458320334,  0.00000000000000 ]
      - [  0.21885672191178,  0.00000000000000 ]
    - # atom 6
      - [  0.00000000001529,  0.00000000000000 ]
      - [ -0.28235458318441,  0.00000000000000 ]
      - [  0.21885672190199,  0.00000000000000 ]
    - # atom 7
      - [  0.00000000001667,  0.00000000000000 ]
      - [ -0.08179523831604,  0.00000000000000 ]
      - [  0.06340055660986,  0.00000000000000 ]
    - # atom 8
      - [  0.00000000000584,  0.00000000000000 ]
      - [ -0.08179523831526,  0.00000000000000 ]
      - [  0.06340055658794,  0.00000000000000 ]
    - # atom 9
      - [  0.00000000001536,  0.00000000000000 ]
      - [ -0.08179523833482,  0.00000000000000 ]
      - [  0.06340055659782,  0.00000000000000 ]
    - # atom 10
      - [ -0.00000000000032,  0.00000000000000 ]
      - [ -0.08179523832426,  0.00000000000000 ]
      - [  0.06340055657078,  0.00000000000000 ]
    - # atom 11
      - [  0.00000000000448,  0.00000000000000 ]
      - [ -0.08179523833404,  0.00000000000000 ]
      - [  0.06340055657576,  0.00000000000000 ]
    - # atom 12
      - [  0.00000000002443,  0.00000000000000 ]
      - [ -0.08179523832237,  0.00000000000000 ]
      - [  0.06340055662292,  0.00000000000000 ]
    - # atom 13
      - [  0.00000000009001,  0.00000000000000 ]
      - [ -0.32588361860303,  0.00000000000000 ]
      - [  0.25259664541134,  0.00000000000000 ]
  - # 7
    frequency:     6.5566934319
    eigenvector:
    - # atom 1
      - [  0.00000000000000,  0.00000000000000 ]
      - [ -0.00000000000001,  0.00000000000000 ]
      - [  0.41915204827019,  0.00000000000000 ]
    - # atom 2
      - [  0.00000000000000,  0.00000000000000 ]
      - [ -0.00000000000001,  0.00000000000000 ]
      - [  0.00152694565332,  0.00000000000000 ]
    - # atom 3
      - [ -0.00000000000000,  0.00000000000000 ]
      - [ -0.00000000000001,  0.00000000000000 ]
      - [  0.22113401601644,  0.00000000000000 ]
    - # atom 4
      - [  0.00000000000000,  0.00000000000000 ]
      - [ -0.00000000000001,  0.00000000000000 ]
      - [  0.41344647285829,  0.00000000000000 ]
    - # atom 5
      - [  0.00000000000000,  0.00000000000000 ]
      - [ -0.00000000000001,  0.00000000000000 ]
      - [  0.00693362212422,  0.00000000000000 ]
    - # atom 6
      - [  0.00000000000000,  0.00000000000000 ]
      - [ -0.00000000000001,  0.00000000000000 ]
      - [ -0.42244097505950,  0.00000000000000 ]
    - # atom 7
      - [ -0.00000000000000,  0.00000000000000 ]
      - [ -0.00000000000000,  0.00000000000000 ]
      - [  0.17253693126682,  0.00000000000000 ]
    - # atom 8
      - [  0.00000000000000,  0.00000000000000 ]
      - [ -0.00000000000000,  0.00000000000000 ]
      - [ -0.02259166282505,  0.00000000000000 ]
    - # atom 9
      - [ -0.00000000000000,  0.00000000000000 ]
      - [ -0.00000000000000,  0.00000000000000 ]
      - [  0.15821127105743,  0.00000000000000 ]
    - # atom 10
      - [  0.00000000000000,  0.00000000000000 ]
      - [ -0.00000000000000,  0.00000000000000 ]
      - [ -0.27022085737346,  0.00000000000000 ]
    - # atom 11
      - [  0.00000000000000,  0.00000000000000 ]
      - [ -0.00000000000000,  0.00000000000000 ]
      - [ -0.02198696749396,  0.00000000000000 ]
    - # atom 12
      - [ -0.00000000000000,  0.00000000000000 ]
      - [ -0.00000000000000,  0.00000000000000 ]
      - [ -0.19259486358797,  0.00000000000000 ]
    - # atom 13
      - [ -0.00000000000001,  0.00000000000000 ]
      - [ -0.00000000000001,  0.00000000000000 ]
      - [ -0.50996160172595,  0.00000000000000 ]
  - # 8
    frequency:    10.9896114957
    eigenvector:
    - # atom 1
      - [  0.00000000000000,  0.00000000000000 ]
      - [  0.00000000000000,  0.00000000000000 ]
      - [ -0.02278294147904,  0.00000000000000 ]
    - # atom 2
      - [  0.00000000000000,  0.00000000000000 ]
      - [ -0.00000000000000,  0.00000000000000 ]
      - [ -0.00260495403358,  0.00000000000000 ]
    - # atom 3
      - [ -0.00000000000000,  0.00000000000000 ]
      - [  0.00000000000000,  0.00000000000000 ]
      - [  0.01253484875490,  0.00000000000000 ]
    - # atom 4
      - [ -0.00000000000000,  0.00000000000000 ]
      - [ -0.00000000000000,  0.00000000000000 ]
      - [  0.06944514843940,  0.00000000000000 ]
    - # atom 5
      - [ -0.00000000000000,  0.00000000000000 ]
      - [ -0.00000000000000,  0.00000000000000 ]
      - [  0.02459284498556,  0.00000000000000 ]
    - # atom 6
      - [  0.00000000000000,  0.00000000000000 ]
      - [ -0.00000000000000,  0.00000000000000 ]
      - [ -0.02267827318078,  0.00000000000000 ]
    - # atom 7
      - [ -0.00000000000000,  0.00000000000000 ]
      - [ -0.00000000000000,  0.00000000000000 ]
      - [ -0.06450587422001,  0.00000000000000 ]
    - # atom 8
      - [  0.00000000000000,  0.00000000000000 ]
      - [  0.00000000000000,  0.00000000000000 ]
      - [ -0.01397235160704,  0.00000000000000 ]
    - # atom 9
      - [ -0.00000000000000,  0.00000000000000 ]
      - [ -0.00000000000000,  0.00000000000000 ]
      - [  0.06821326019995,  0.00000000000000 ]
    - # atom 10
      - [ -0.00000000000000,  0.00000000000000 ]
      - [ -0.00000000000000,  0.00000000000000 ]
      - [ -0.01133655676287,  0.00000000000000 ]
    - # atom 11
      - [ -0.00000000000000,  0.00000000000000 ]
      - [ -0.00000000000000,  0.00000000000000 ]
      - [  0.03224132220800,  0.00000000000000 ]
    - # atom 12
      - [  0.00000000000000,  0.00000000000000 ]
      - [  0.00000000000000,  0.00000000000000 ]
      - [  0.94782120737541,  0.00000000000000 ]
    - # atom 13
      - [  0.00000000000000,  0.00000000000000 ]
      - [  0.00000000000000,  0.00000000000000 ]
      - [ -0.29126095482410,  0.00000000000000 ]
  - # 9
    frequency:    11.7649969894
    eigenvector:
    - # atom 1
      - [  0.34148131096179,  0.00000000000000 ]
      - [  0.06247646619543,  0.00000000000000 ]
      - [ -0.00000000000000,  0.00000000000000 ]
    - # atom 2
      - [ -0.03487825405287,  0.00000000000000 ]
      - [  0.15913929086202,  0.00000000000000 ]
      - [  0.00000000000000,  0.00000000000000 ]
    - # atom 3
      - [  0.34021470870457,  0.00000000000000 ]
      - [ -0.01163709201704,  0.00000000000000 ]
      - [ -0.00000000000000,  0.00000000000000 ]
    - # atom 4
      - [  0.31301222083528,  0.00000000000000 ]
      - [ -0.11196960124207,  0.00000000000000 ]
      - [ -0.00000000000000,  0.00000000000000 ]
    - # atom 5
      - [ -0.06316927011723,  0.00000000000000 ]
      - [ -0.15054449739037,  0.00000000000000 ]
      - [ -0.00000000000000,  0.00000000000000 ]
    - # atom 6
      - [ -0.14554984999321,  0.00000000000000 ]
      - [  0.00685829024479,  0.00000000000000 ]
      - [  0.00000000000000,  0.00000000000000 ]
    - # atom 7
      - [  0.14134601597278,  0.00000000000000 ]
      - [  0.08385063421560,  0.00000000000000 ]
      - [ -0.00000000000000,  0.00000000000000 ]
    - # atom 8
      - [ -0.04029051927285,  0.00000000000000 ]
      - [  0.11138633479265,  0.00000000000000 ]
      - [  0.00000000000000,  0.00000000000000 ]
    - # atom 9
      - [  0.13277628826469,  0.00000000000000 ]
      - [ -0.11544210136319,  0.00000000000000 ]
      - [ -0.00000000000000,  0.00000000000000 ]
    - # atom 10
      - [ -0.07902358247549,  0.00000000000000 ]
      - [  0.00475721113507,  0.00000000000000 ]
      - [  0.00000000000000,  0.00000000000000 ]
    - # atom 11
      - [ -0.05607846159035,  0.00000000000000 ]
      - [ -0.10106386306661,  0.00000000000000 ]
      - [ -0.00000000000000,  0.00000000000000 ]
    - # atom 12
      - [ -0.25906942478647,  0.00000000000000 ]
      - [ -0.19626920082087,  0.00000000000000 ]
      - [  0.00000000000000,  0.00000000000000 ]
    - # atom 13
      - [ -0.61053873708213,  0.00000000000000 ]
      - [  0.09298295596800,  0.00000000000000 ]
      - [ -0.00000000000000,  0.00000000000000 ]
  - # 10
    frequency:    12.1663247368
    eigenvector:
    - # atom 1
      - [  0.00000000000000,  0.00000000000000 ]
      - [ -0.00000000000000,  0.00000000000000 ]
      - [  0.42200319059126,  0.00000000000000 ]
    - # atom 2
      - [ -0.00000000000000,  0.00000000000000 ]
      - [ -0.00000000000000,  0.00000000000000 ]
      - [ -0.42062993727139,  0.00000000000000 ]
    - # atom 3
      - [  0.00000000000000,  0.00000000000000 ]
      - [ -0.00000000000000,  0.00000000000000 ]
      - [ -0.01027255748051,  0.00000000000000 ]
    - # atom 4
      - [  0.00000000000000,  0.00000000000000 ]
      - [  0.00000000000000,  0.00000000000000 ]
      - [ -0.42744580069493,  0.00000000000000 ]
    - # atom 5
      - [  0.00000000000000,  0.00000000000000 ]
      - [ -0.00000000000000,  0.00000000000000 ]
      - [  0.42637611805841,  0.00000000000000 ]
    - # atom 6
      - [  0.00000000000000,  0.00000000000000 ]
      - [  0.00000000000000,  0.00000000000000 ]
      - [  0.00138180158533,  0.00000000000000 ]
    - # atom 7
      - [  0.00000000000000,  0.00000000000000 ]
      - [ -0.00000000000000,  0.00000000000000 ]
      - [  0.25917349031347,  0.00000000000000 ]
    - # atom 8
      - [  0.00000000000000,  0.00000000000000 ]
      - [ -0.00000000000000,  0.00000000000000 ]
      - [ -0.27067310339989,  0.00000000000000 ]
    - # atom 9
      - [  0.00000000000000,  0.00000000000000 ]
      - [  0.00000000000000,  0.00000000000000 ]
      - [ -0.24952888026781,  0.00000000000000 ]
    - # atom 10
      - [  0.00000000000000,  0.00000000000000 ]
      - [ -0.00000000000000,  0.00000000000000 ]
      - [ -0.00250060930727,  0.00000000000000 ]
    - # atom 11
      - [  0.00000000000000,  0.00000000000000 ]
      - [  0.00000000000000,  0.00000000000000 ]
      - [  0.27417767328864,  0.00000000000000 ]
    - # atom 12
      - [ -0.00000000000000,  0.00000000000000 ]
      - [ -0.00000000000000,  0.00000000000000 ]
      - [  0.04932276510345,  0.00000000000000 ]
    - # atom 13
      - [ -0.00000000000001,  0.00000000000000 ]
      - [ -0.00000000000000,  0.00000000000000 ]
      - [ -0.00761234519304,  0.00000000000000 ]
  - # 11
    frequency:    14.8675911639
    eigenvector:
    - # atom 1
      - [  0.00000000000000,  0.00000000000000 ]
      - [  0.00000000000000,  0.00000000000000 ]
      - [ -0.03009973251213,  0.00000000000000 ]
    - # atom 2
      - [ -0.00000000000000,  0.00000000000000 ]
      - [  0.00000000000000,  0.00000000000000 ]
      - [  0.25790724829667,  0.00000000000000 ]
    - # atom 3
      - [  0.00000000000000,  0.00000000000000 ]
      - [ -0.00000000000000,  0.00000000000000 ]
      - [ -0.60413000583631,  0.00000000000000 ]
    - # atom 4
      - [  0.00000000000000,  0.00000000000000 ]
      - [  0.00000000000000,  0.00000000000000 ]
      - [ -0.01589887362026,  0.00000000000000 ]
    - # atom 5
      - [  0.00000000000000,  0.00000000000000 ]
      - [  0.00000000000000,  0.00000000000000 ]
      - [  0.24682653175883,  0.00000000000000 ]
    - # atom 6
      - [ -0.00000000000000,  0.00000000000000 ]
      - [  0.00000000000000,  0.00000000000000 ]
      - [ -0.37929756059200,  0.00000000000000 ]
    - # atom 7
      - [  0.00000000000000,  0.00000000000000 ]
      - [  0.00000000000000,  0.00000000000000 ]
      - [  0.24664868127799,  0.00000000000000 ]
    - # atom 8
      - [ -0.00000000000000,  0.00000000000000 ]
      - [  0.00000000000000,  0.00000000000000 ]
      - [  0.31101521035569,  0.00000000000000 ]
    - # atom 9
      - [  0.00000000000000,  0.00000000000000 ]
      - [  0.00000000000000,  0.00000000000000 ]
      - [  0.24485054129866,  0.00000000000000 ]
    - # atom 10
      - [ -0.00000000000000,  0.00000000000000 ]
      - [  0.00000000000000,  0.00000000000000 ]
      - [ -0.11109512048656,  0.00000000000000 ]
    - # atom 11
      - [ -0.00000000000000,  0.00000000000000 ]
      - [ -0.00000000000000,  0.00000000000000 ]
      - [  0.30562194140139,  0.00000000000000 ]
    - # atom 12
      - [ -0.00000000000000,  0.00000000000000 ]
      - [ -0.00000000000000,  0.00000000000000 ]
      - [  0.04501047411530,  0.00000000000000 ]
    - # atom 13
      - [ -0.00000000000000,  0.00000000000000 ]
      - [ -0.00000000000000,  0.00000000000000 ]
      - [  0.19305797763482,  0.00000000000000 ]
  - # 12
    frequency:    15.5416431250
    eigenvector:
    - # atom 1
      - [ -0.20434158839772,  0.00000000000000 ]
      - [  0.09765822002877,  0.00000000000000 ]
      - [ -0.00000000000000,  0.00000000000000 ]
    - # atom 2
      - [ -0.18673707711109,  0.00000000000000 ]
      - [  0.18196202103423,  0.00000000000000 ]
      - [ -0.00000000000000,  0.00000000000000 ]
    - # atom 3
      - [ -0.02337111036791,  0.00000000000000 ]
      - [ -0.35384533368634,  0.00000000000000 ]
      - [ -0.00000000000000,  0.00000000000000 ]
    - # atom 4
      - [  0.22932313280623,  0.00000000000000 ]
      - [  0.06502256482504,  0.00000000000000 ]
      - [  0.00000000000000,  0.00000000000000 ]
    - # atom 5
      - [  0.21098207788753,  0.00000000000000 ]
      - [  0.15215210750382,  0.00000000000000 ]
      - [ -0.00000000000001,  0.00000000000000 ]
    - # atom 6
      - [  0.03128298092297,  0.00000000000000 ]
      - [  0.47194301988918,  0.00000000000000 ]
      - [  0.00000000000001,  0.00000000000000 ]
    - # atom 7
      - [  0.00334874672838,  0.00000000000000 ]
      - [  0.11818833917598,  0.00000000000000 ]
      - [ -0.00000000000000,  0.00000000000000 ]
    - # atom 8
      - [ -0.01642986546101,  0.00000000000000 ]
      - [ -0.02440786611365,  0.00000000000000 ]
      - [ -0.00000000000000,  0.00000000000000 ]
    - # atom 9
      - [  0.01311940466158,  0.00000000000000 ]
      - [  0.12112892933938,  0.00000000000000 ]
      - [  0.00000000000000,  0.00000000000000 ]
    - # atom 10
      - [  0.00859374540432,  0.00000000000000 ]
      - [  0.13683677267423,  0.00000000000000 ]
      - [  0.00000000000000,  0.00000000000000 ]
    - # atom 11
      - [  0.01117011812888,  0.00000000000000 ]
      - [ -0.02888902673716,  0.00000000000000 ]
      - [ -0.00000000000000,  0.00000000000000 ]
    - # atom 12
      - [ -0.00651860160576,  0.00000000000000 ]
      - [ -0.13597975750029,  0.00000000000000 ]
      - [  0.00000000000000,  0.00000000000000 ]
    - # atom 13
      - [ -0.05284041154615,  0.00000000000000 ]
      - [ -0.57966529645253,  0.00000000000000 ]
      - [ -0.00000000000000,  0.00000000000000 ]
  - # 13
    frequency:    18.3015958451
    eigenvector:
    - # atom 1
      - [  0.21288388020371,  0.00000000000000 ]
      - [ -0.35319886524355,  0.00000000000000 ]
      - [  0.00000000000000,  0.00000000000000 ]
    - # atom 2
      - [ -0.36327792650896,  0.00000000000000 ]
      - [ -0.34919155618318,  0.00000000000000 ]
      - [  0.00000000000000,  0.00000000000000 ]
    - # atom 3
      - [  0.16172040818202,  0.00000000000000 ]
      - [ -0.01285277668932,  0.00000000000000 ]
      - [ -0.00000000000000,  0.00000000000000 ]
    - # atom 4
      - [  0.26513401487093,  0.00000000000000 ]
      - [  0.31609062589325,  0.00000000000000 ]
      - [  0.00000000000000,  0.00000000000000 ]
    - # atom 5
      - [ -0.30488309191529,  0.00000000000000 ]
      - [  0.39384140553986,  0.00000000000000 ]
      - [ -0.00000000000000,  0.00000000000000 ]
    - # atom 6
      - [ -0.17334870760092,  0.00000000000000 ]
      - [  0.01246397095407,  0.00000000000000 ]
      - [  0.00000000000000,  0.00000000000000 ]
    - # atom 7
      - [  0.09562530248859,  0.00000000000000 ]
      - [ -0.05004734764668,  0.00000000000000 ]
      - [  0.00000000000000,  0.00000000000000 ]
    - # atom 8
      - [ -0.12839582315391,  0.00000000000000 ]
      - [ -0.05222350209981,  0.00000000000000 ]
      - [ -0.00000000000000,  0.00000000000000 ]
    - # atom 9
      - [  0.10199176133229,  0.00000000000000 ]
      - [  0.03900688901902,  0.00000000000000 ]
      - [  0.00000000000000,  0.00000000000000 ]
    - # atom 10
      - [  0.12861736578025,  0.00000000000000 ]
      - [ -0.00926523471937,  0.00000000000000 ]
      - [ -0.00000000000000,  0.00000000000000 ]
    - # atom 11
      - [ -0.11937253306050,  0.00000000000000 ]
      - [  0.06753687851265,  0.00000000000000 ]
      - [ -0.00000000000000,  0.00000000000000 ]