mesh: [     1,     1,     1 ]
nqpoint: 1      
reciprocal_lattice:
- [   0.05172532,   0.00000000,   0.00000000 ] # a*
- [   0.00000000,   0.04804613,   0.00000000 ] # b*
- [   0.00000000,   0.00000000,   0.05957693 ] # c*
natom:   15     
lattice:
- [    19.3328899999999990,     0.0000000000000000,     0.0000000000000000 ] # a
- [     0.0000000000000000,    20.8133300000000006,     0.0000000000000000 ] # b
- [     0.0000000000000000,     0.0000000000000000,    16.7850199999999994 ] # c
atoms:
- symbol: C  # 1
  position: [  0.4380289323908168,  0.5134886830065494,  0.5002087542785785 ]
  mass: 12.010700
- symbol: C  # 2
  position: [  0.4369584990734314,  0.4463571157559401,  0.5004681556013002 ]
  mass: 12.010700
- symbol: C  # 3
  position: [  0.5007096080646330,  0.5473315923334259,  0.4997988564685877 ]
  mass: 12.010700
- symbol: C  # 4
  position: [  0.5624959043378596,  0.5119546699484621,  0.4993220573826543 ]
  mass: 12.010700
- symbol: C  # 5
  position: [  0.5617283068492391,  0.4449261002256469,  0.4996078255415269 ]
  mass: 12.010700
- symbol: C  # 6
  position: [  0.4988481844882633,  0.4117917645226141,  0.5002489816428880 ]
  mass: 12.010700
- symbol: C  # 7
  position: [  0.5022338615528171,  0.6196675858227282,  0.5010421597607561 ]
  mass: 12.010700
- symbol: H  # 8
  position: [  0.4516365604663596,  0.6400956921300658,  0.4856196394301625 ]
  mass: 1.007940
- symbol: H  # 9
  position: [  0.5407106358634663,  0.6386648400687464,  0.4589836162530305 ]
  mass: 1.007940
- symbol: H  # 10
  position: [  0.5163090089118684,  0.6376559096324116,  0.5605620996677975 ]
  mass: 1.007940
- symbol: H  # 11
  position: [  0.3893364629979087,  0.5401139196189237,  0.5001859920164536 ]
  mass: 1.007940
- symbol: H  # 12
  position: [  0.3875669812269840,  0.4210183503283848,  0.5006725678482267 ]
  mass: 1.007940
- symbol: H  # 13
  position: [  0.4981762875612417,  0.3594038289965611,  0.5003348609848888 ]
  mass: 1.007940
- symbol: H  # 14
  position: [  0.6118699421435516,  0.5374735777402547,  0.4985918612993833 ]
  mass: 1.007940
- symbol: H  # 15
  position: [  0.6104169334633690,  0.4184454935703074,  0.4991593185702757 ]
  mass: 1.007940
supercell_matrix:
- [    1,    0,    0 ]
- [    0,    1,    0 ]
- [    0,    0,    1 ]

phonon:
- q-position: [    0.0000000,    0.0000000,    0.0000000 ]
  weight: 1    
  band:
  - # 1
    frequency:    -0.3829686987
    eigenvector:
    - # atom 1
      - [  0.00113280749206,  0.00000000000000 ]
      - [  0.00312611689974,  0.00000000000000 ]
      - [  0.24238609172701,  0.00000000000000 ]
    - # atom 2
      - [ -0.00218146609999,  0.00000000000000 ]
      - [  0.00249856772597,  0.00000000000000 ]
      - [ -0.06125155023681,  0.00000000000000 ]
    - # atom 3
      - [  0.00233726874490,  0.00000000000000 ]
      - [  0.00123366795808,  0.00000000000000 ]
      - [  0.20720287037192,  0.00000000000000 ]
    - # atom 4
      - [ -0.00130691381952,  0.00000000000000 ]
      - [ -0.00036105148195,  0.00000000000000 ]
      - [ -0.14445422347397,  0.00000000000000 ]
    - # atom 5
      - [ -0.00457593914328,  0.00000000000000 ]
      - [ -0.00161906637177,  0.00000000000000 ]
      - [ -0.44881343304925,  0.00000000000000 ]
    - # atom 6
      - [ -0.00468215820718,  0.00000000000000 ]
      - [ -0.00030402336689,  0.00000000000000 ]
      - [ -0.40746469570441,  0.00000000000000 ]
    - # atom 7
      - [  0.00830494354165,  0.00000000000000 ]
      - [ -0.00356866243772,  0.00000000000000 ]
      - [  0.54233742110861,  0.00000000000000 ]
    - # atom 8
      - [ -0.00266365515282,  0.00000000000000 ]
      - [  0.01666815188722,  0.00000000000000 ]
      - [  0.20520709449647,  0.00000000000000 ]
    - # atom 9
      - [ -0.01163797103783,  0.00000000000000 ]
      - [  0.04442026973793,  0.00000000000000 ]
      - [  0.16793269022635,  0.00000000000000 ]
    - # atom 10
      - [  0.02269273768471,  0.00000000000000 ]
      - [ -0.06648748762180,  0.00000000000000 ]
      - [  0.17619785291213,  0.00000000000000 ]
    - # atom 11
      - [  0.00075514144003,  0.00000000000000 ]
      - [  0.00169145447056,  0.00000000000000 ]
      - [  0.14817196548577,  0.00000000000000 ]
    - # atom 12
      - [ -0.00090511984951,  0.00000000000000 ]
      - [  0.00128172871767,  0.00000000000000 ]
      - [ -0.00788934829940,  0.00000000000000 ]
    - # atom 13
      - [ -0.00224854772117,  0.00000000000000 ]
      - [ -0.00016683577190,  0.00000000000000 ]
      - [ -0.18692864284704,  0.00000000000000 ]
    - # atom 14
      - [ -0.00051190180339,  0.00000000000000 ]
      - [ -0.00012028944639,  0.00000000000000 ]
      - [ -0.05212218478059,  0.00000000000000 ]
    - # atom 15
      - [ -0.00212724294501,  0.00000000000000 ]
      - [ -0.00075811517470,  0.00000000000000 ]
      - [ -0.20873308009735,  0.00000000000000 ]
  - # 2
    frequency:    -0.3045242159
    eigenvector:
    - # atom 1
      - [  0.05056385338534,  0.00000000000000 ]
      - [  0.24445724942661,  0.00000000000000 ]
      - [ -0.00834391977766,  0.00000000000000 ]
    - # atom 2
      - [ -0.23369067313298,  0.00000000000000 ]
      - [  0.24860438206841,  0.00000000000000 ]
      - [ -0.00724453253122,  0.00000000000000 ]
    - # atom 3
      - [  0.19380379637717,  0.00000000000000 ]
      - [ -0.00195817761075,  0.00000000000000 ]
      - [ -0.00060716532485,  0.00000000000000 ]
    - # atom 4
      - [  0.04408942519144,  0.00000000000000 ]
      - [ -0.24506926343604,  0.00000000000000 ]
      - [  0.00868969839346,  0.00000000000000 ]
    - # atom 5
      - [ -0.23974343300459,  0.00000000000000 ]
      - [ -0.24199025700345,  0.00000000000000 ]
      - [  0.00984085469508,  0.00000000000000 ]
    - # atom 6
      - [ -0.38007121700839,  0.00000000000000 ]
      - [  0.00522834991639,  0.00000000000000 ]
      - [  0.00174802731093,  0.00000000000000 ]
    - # atom 7
      - [  0.50067494039136,  0.00000000000000 ]
      - [ -0.00783527791318,  0.00000000000000 ]
      - [ -0.00346159054574,  0.00000000000000 ]
    - # atom 8
      - [  0.16930800384798,  0.00000000000000 ]
      - [  0.05536212325993,  0.00000000000000 ]
      - [  0.00203185239077,  0.00000000000000 ]
    - # atom 9
      - [  0.16598252838595,  0.00000000000000 ]
      - [ -0.04656000875608,  0.00000000000000 ]
      - [ -0.00379242594732,  0.00000000000000 ]
    - # atom 10
      - [  0.17070430671911,  0.00000000000000 ]
      - [ -0.01772373286425,  0.00000000000000 ]
      - [ -0.00220768407967,  0.00000000000000 ]
    - # atom 11
      - [  0.04727095543345,  0.00000000000000 ]
      - [  0.12621100267398,  0.00000000000000 ]
      - [ -0.00442969049026,  0.00000000000000 ]
    - # atom 12
      - [ -0.09881399914445,  0.00000000000000 ]
      - [  0.12835656384921,  0.00000000000000 ]
      - [ -0.00386995633344,  0.00000000000000 ]
    - # atom 13
      - [ -0.17437215235072,  0.00000000000000 ]
      - [  0.00228407842418,  0.00000000000000 ]
      - [  0.00075822639696,  0.00000000000000 ]
    - # atom 14
      - [  0.04409550616678,  0.00000000000000 ]
      - [ -0.12725614653736,  0.00000000000000 ]
      - [  0.00438562969370,  0.00000000000000 ]
    - # atom 15
      - [ -0.10196052063916,  0.00000000000000 ]
      - [ -0.12563437753583,  0.00000000000000 ]
      - [  0.00497909099268,  0.00000000000000 ]
  - # 3
    frequency:     0.0000002669
    eigenvector:
    - # atom 1
      - [ -0.00000000002567,  0.00000000000000 ]
      - [ -0.05327260580496,  0.00000000000000 ]
      - [  0.35709520980366,  0.00000000000000 ]
    - # atom 2
      - [ -0.00000000002749,  0.00000000000000 ]
      - [ -0.05327260580505,  0.00000000000000 ]
      - [  0.35709520978809,  0.00000000000000 ]
    - # atom 3
      - [ -0.00000000002468,  0.00000000000000 ]
      - [ -0.05327260580635,  0.00000000000000 ]
      - [  0.35709520984866,  0.00000000000000 ]
    - # atom 4
      - [ -0.00000000002525,  0.00000000000000 ]
      - [ -0.05327260580773,  0.00000000000000 ]
      - [  0.35709520987817,  0.00000000000000 ]
    - # atom 5
      - [ -0.00000000002707,  0.00000000000000 ]
      - [ -0.05327260580770,  0.00000000000000 ]
      - [  0.35709520986285,  0.00000000000000 ]
    - # atom 6
      - [ -0.00000000002828,  0.00000000000000 ]
      - [ -0.05327260580640,  0.00000000000000 ]
      - [  0.35709520981756,  0.00000000000000 ]
    - # atom 7
      - [ -0.00000000002310,  0.00000000000000 ]
      - [ -0.05327260580658,  0.00000000000000 ]
      - [  0.35709520986394,  0.00000000000000 ]
    - # atom 8
      - [ -0.00000000000586,  0.00000000000000 ]
      - [ -0.01543252968900,  0.00000000000000 ]
      - [  0.10344683435134,  0.00000000000000 ]
    - # atom 9
      - [ -0.00000000000479,  0.00000000000000 ]
      - [ -0.01543252968834,  0.00000000000000 ]
      - [  0.10344683435560,  0.00000000000000 ]
    - # atom 10
      - [ -0.00000000000896,  0.00000000000000 ]
      - [ -0.01543252969299,  0.00000000000000 ]
      - [  0.10344683435435,  0.00000000000000 ]
    - # atom 11
      - [ -0.00000000000724,  0.00000000000000 ]
      - [ -0.01543252968927,  0.00000000000000 ]
      - [  0.10344683432853,  0.00000000000000 ]
    - # atom 12
      - [ -0.00000000000818,  0.00000000000000 ]
      - [ -0.01543252968930,  0.00000000000000 ]
      - [  0.10344683432051,  0.00000000000000 ]
    - # atom 13
      - [ -0.00000000000857,  0.00000000000000 ]
      - [ -0.01543252969002,  0.00000000000000 ]
      - [  0.10344683433576,  0.00000000000000 ]
    - # atom 14
      - [ -0.00000000000701,  0.00000000000000 ]
      - [ -0.01543252969071,  0.00000000000000 ]
      - [  0.10344683436710,  0.00000000000000 ]
    - # atom 15
      - [ -0.00000000000797,  0.00000000000000 ]
      - [ -0.01543252969070,  0.00000000000000 ]
      - [  0.10344683435920,  0.00000000000000 ]
  - # 4
    frequency:     0.0000010300
    eigenvector:
    - # atom 1
      - [ -0.00000000002005,  0.00000000000000 ]
      - [  0.35709520983803,  0.00000000000000 ]
      - [  0.05327260578573,  0.00000000000000 ]
    - # atom 2
      - [ -0.00000000002015,  0.00000000000000 ]
      - [  0.35709520983796,  0.00000000000000 ]
      - [  0.05327260577587,  0.00000000000000 ]
    - # atom 3
      - [ -0.00000000001996,  0.00000000000000 ]
      - [  0.35709520983806,  0.00000000000000 ]
      - [  0.05327260581315,  0.00000000000000 ]
    - # atom 4
      - [ -0.00000000001977,  0.00000000000000 ]
      - [  0.35709520983809,  0.00000000000000 ]
      - [  0.05327260583076,  0.00000000000000 ]
    - # atom 5
      - [ -0.00000000001987,  0.00000000000000 ]
      - [  0.35709520983810,  0.00000000000000 ]
      - [  0.05327260582105,  0.00000000000000 ]
    - # atom 6
      - [ -0.00000000002011,  0.00000000000000 ]
      - [  0.35709520983801,  0.00000000000000 ]
      - [  0.05327260579345,  0.00000000000000 ]
    - # atom 7
      - [ -0.00000000002008,  0.00000000000000 ]
      - [  0.35709520983793,  0.00000000000000 ]
      - [  0.05327260582277,  0.00000000000000 ]
    - # atom 8
      - [ -0.00000000000549,  0.00000000000000 ]
      - [  0.10344683434559,  0.00000000000000 ]
      - [  0.01543252969432,  0.00000000000000 ]
    - # atom 9
      - [ -0.00000000000498,  0.00000000000000 ]
      - [  0.10344683434639,  0.00000000000000 ]
      - [  0.01543252969632,  0.00000000000000 ]
    - # atom 10
      - [ -0.00000000000693,  0.00000000000000 ]
      - [  0.10344683434335,  0.00000000000000 ]
      - [  0.01543252969572,  0.00000000000000 ]
    - # atom 11
      - [ -0.00000000000580,  0.00000000000000 ]
      - [  0.10344683434516,  0.00000000000000 ]
      - [  0.01543252968006,  0.00000000000000 ]
    - # atom 12
      - [ -0.00000000000586,  0.00000000000000 ]
      - [  0.10344683434513,  0.00000000000000 ]
      - [  0.01543252967498,  0.00000000000000 ]
    - # atom 13
      - [ -0.00000000000583,  0.00000000000000 ]
      - [  0.10344683434515,  0.00000000000000 ]
      - [  0.01543252968407,  0.00000000000000 ]
    - # atom 14
      - [ -0.00000000000566,  0.00000000000000 ]
      - [  0.10344683434519,  0.00000000000000 ]
      - [  0.01543252970336,  0.00000000000000 ]
    - # atom 15
      - [ -0.00000000000572,  0.00000000000000 ]
      - [  0.10344683434519,  0.00000000000000 ]
      - [  0.01543252969836,  0.00000000000000 ]
  - # 5
    frequency:     0.0000014610
    eigenvector:
    - # atom 1
      - [ -0.36104703214216,  0.00000000000000 ]
      - [ -0.00000000001624,  0.00000000000000 ]
      - [ -0.00000000000705,  0.00000000000000 ]
    - # atom 2
      - [ -0.36104703214175,  0.00000000000000 ]
      - [ -0.00000000001617,  0.00000000000000 ]
      - [  0.00000000000243,  0.00000000000000 ]
    - # atom 3
      - [ -0.36104703214241,  0.00000000000000 ]
      - [ -0.00000000001599,  0.00000000000000 ]
      - [ -0.00000000003503,  0.00000000000000 ]
    - # atom 4
      - [ -0.36104703214244,  0.00000000000000 ]
      - [ -0.00000000001576,  0.00000000000000 ]
      - [ -0.00000000005361,  0.00000000000000 ]
    - # atom 5
      - [ -0.36104703214203,  0.00000000000000 ]
      - [ -0.00000000001577,  0.00000000000000 ]
      - [ -0.00000000004428,  0.00000000000000 ]
    - # atom 6
      - [ -0.36104703214163,  0.00000000000000 ]
      - [ -0.00000000001595,  0.00000000000000 ]
      - [ -0.00000000001611,  0.00000000000000 ]
    - # atom 7
      - [ -0.36104703214264,  0.00000000000000 ]
      - [ -0.00000000001587,  0.00000000000000 ]
      - [ -0.00000000004421,  0.00000000000000 ]
    - # atom 8
      - [ -0.10459163689690,  0.00000000000000 ]
      - [ -0.00000000000510,  0.00000000000000 ]
      - [ -0.00000000001226,  0.00000000000000 ]
    - # atom 9
      - [ -0.10459163689744,  0.00000000000000 ]
      - [ -0.00000000000574,  0.00000000000000 ]
      - [ -0.00000000001438,  0.00000000000000 ]
    - # atom 10
      - [ -0.10459163689538,  0.00000000000000 ]
      - [ -0.00000000000289,  0.00000000000000 ]
      - [ -0.00000000001375,  0.00000000000000 ]
    - # atom 11
      - [ -0.10459163689643,  0.00000000000000 ]
      - [ -0.00000000000477,  0.00000000000000 ]
      - [  0.00000000000215,  0.00000000000000 ]
    - # atom 12
      - [ -0.10459163689622,  0.00000000000000 ]
      - [ -0.00000000000474,  0.00000000000000 ]
      - [  0.00000000000704,  0.00000000000000 ]
    - # atom 13
      - [ -0.10459163689617,  0.00000000000000 ]
      - [ -0.00000000000462,  0.00000000000000 ]
      - [ -0.00000000000255,  0.00000000000000 ]
    - # atom 14
      - [ -0.10459163689658,  0.00000000000000 ]
      - [ -0.00000000000452,  0.00000000000000 ]
      - [ -0.00000000002195,  0.00000000000000 ]
    - # atom 15
      - [ -0.10459163689636,  0.00000000000000 ]
      - [ -0.00000000000452,  0.00000000000000 ]
      - [ -0.00000000001714,  0.00000000000000 ]
  - # 6
    frequency:     0.0917634241
    eigenvector:
    - # atom 1
      - [ -0.00170705466981,  0.00000000000000 ]
      - [ -0.00335112735120,  0.00000000000000 ]
      - [ -0.36862769989788,  0.00000000000000 ]
    - # atom 2
      - [  0.00073814533178,  0.00000000000000 ]
      - [ -0.00461030005144,  0.00000000000000 ]
      - [ -0.52459349189975,  0.00000000000000 ]
    - # atom 3
      - [ -0.00218065059694,  0.00000000000000 ]
      - [  0.00061869257295,  0.00000000000000 ]
      - [  0.10668832070240,  0.00000000000000 ]
    - # atom 4
      - [  0.00327619224977,  0.00000000000000 ]
      - [  0.00456257466725,  0.00000000000000 ]
      - [  0.42748202811525,  0.00000000000000 ]
    - # atom 5
      - [  0.00563105860566,  0.00000000000000 ]
      - [  0.00472865977243,  0.00000000000000 ]
      - [  0.27411764687830,  0.00000000000000 ]
    - # atom 6
      - [  0.00352389967493,  0.00000000000000 ]
      - [ -0.00036069937704,  0.00000000000000 ]
      - [ -0.20460061722021,  0.00000000000000 ]
    - # atom 7
      - [ -0.00868167265328,  0.00000000000000 ]
      - [ -0.00122834895347,  0.00000000000000 ]
      - [  0.25761932393534,  0.00000000000000 ]
    - # atom 8
      - [  0.00377486309695,  0.00000000000000 ]
      - [  0.00604277829147,  0.00000000000000 ]
      - [  0.06182594074479,  0.00000000000000 ]
    - # atom 9
      - [  0.01435010702919,  0.00000000000000 ]
      - [  0.01988211800620,  0.00000000000000 ]
      - [  0.10331276972007,  0.00000000000000 ]
    - # atom 10
      - [ -0.02604228639127,  0.00000000000000 ]
      - [ -0.02788634773748,  0.00000000000000 ]
      - [  0.09115882311999,  0.00000000000000 ]
    - # atom 11
      - [ -0.00088771582556,  0.00000000000000 ]
      - [ -0.00172369442436,  0.00000000000000 ]
      - [ -0.17923995060077,  0.00000000000000 ]
    - # atom 12
      - [  0.00028760674473,  0.00000000000000 ]
      - [ -0.00216397044153,  0.00000000000000 ]
      - [ -0.25959930791796,  0.00000000000000 ]
    - # atom 13
      - [  0.00188269383640,  0.00000000000000 ]
      - [ -0.00016173829286,  0.00000000000000 ]
      - [ -0.09401681921146,  0.00000000000000 ]
    - # atom 14
      - [  0.00176044746934,  0.00000000000000 ]
      - [  0.00242395952529,  0.00000000000000 ]
      - [  0.23286966700495,  0.00000000000000 ]
    - # atom 15
      - [  0.00280338566015,  0.00000000000000 ]
      - [  0.00234608017896,  0.00000000000000 ]
      - [  0.15385668706265,  0.00000000000000 ]
  - # 7
    frequency:     0.7394042767
    eigenvector:
    - # atom 1
      - [ -0.00590190872066,  0.00000000000000 ]
      - [ -0.00606873284306,  0.00000000000000 ]
      - [  0.01033887345257,  0.00000000000000 ]
    - # atom 2
      - [  0.00179876081257,  0.00000000000000 ]
      - [ -0.01201010972638,  0.00000000000000 ]
      - [ -0.02826729432038,  0.00000000000000 ]
    - # atom 3
      - [ -0.01617305534971,  0.00000000000000 ]
      - [  0.00003484911107,  0.00000000000000 ]
      - [  0.04068991701528,  0.00000000000000 ]
    - # atom 4
      - [ -0.00581371673518,  0.00000000000000 ]
      - [  0.00561588451003,  0.00000000000000 ]
      - [  0.05678927326117,  0.00000000000000 ]
    - # atom 5
      - [  0.00230598628064,  0.00000000000000 ]
      - [  0.01103504662028,  0.00000000000000 ]
      - [  0.01839439091384,  0.00000000000000 ]
    - # atom 6
      - [  0.00263095312966,  0.00000000000000 ]
      - [ -0.00063983816148,  0.00000000000000 ]
      - [ -0.02945742801328,  0.00000000000000 ]
    - # atom 7
      - [  0.00992301501397,  0.00000000000000 ]
      - [  0.00162045234061,  0.00000000000000 ]
      - [ -0.04957492470320,  0.00000000000000 ]
    - # atom 8
      - [ -0.13975575154486,  0.00000000000000 ]
      - [ -0.00459929383334,  0.00000000000000 ]
      - [  0.51990423640279,  0.00000000000000 ]
    - # atom 9
      - [ -0.39175158571045,  0.00000000000000 ]
      - [ -0.00643578382149,  0.00000000000000 ]
      - [ -0.43732306183840,  0.00000000000000 ]
    - # atom 10
      - [  0.56819594761840,  0.00000000000000 ]
      - [  0.01311078491692,  0.00000000000000 ]
      - [ -0.17452717449647,  0.00000000000000 ]
    - # atom 11
      - [ -0.00237422460044,  0.00000000000000 ]
      - [ -0.00320221365776,  0.00000000000000 ]
      - [  0.00818127161723,  0.00000000000000 ]
    - # atom 12
      - [  0.00124249156503,  0.00000000000000 ]
      - [ -0.00475831165586,  0.00000000000000 ]
      - [ -0.01209713784703,  0.00000000000000 ]
    - # atom 13
      - [  0.00364373700675,  0.00000000000000 ]
      - [ -0.00022683737477,  0.00000000000000 ]
      - [ -0.01371266907954,  0.00000000000000 ]
    - # atom 14
      - [ -0.00199616745286,  0.00000000000000 ]
      - [  0.00294697479321,  0.00000000000000 ]
      - [  0.03221306992322,  0.00000000000000 ]
    - # atom 15
      - [  0.00156104010821,  0.00000000000000 ]
      - [  0.00458843863256,  0.00000000000000 ]
      - [  0.01207504990482,  0.00000000000000 ]
  - # 8
    frequency:     6.0063815370
    eigenvector:
    - # atom 1
      - [ -0.00455900464711,  0.00000000000000 ]
      - [  0.00155837488584,  0.00000000000000 ]
      - [ -0.38134497245888,  0.00000000000000 ]
    - # atom 2
      - [ -0.00036624565442,  0.00000000000000 ]
      - [  0.00223009763795,  0.00000000000000 ]
      - [  0.00914569772153,  0.00000000000000 ]
    - # atom 3
      - [ -0.00416313885325,  0.00000000000000 ]
      - [  0.00029898567863,  0.00000000000000 ]
      - [ -0.30279509704824,  0.00000000000000 ]
    - # atom 4
      - [ -0.00236539496054,  0.00000000000000 ]
      - [  0.00293702008569,  0.00000000000000 ]
      - [ -0.37202642331656,  0.00000000000000 ]
    - # atom 5
      - [  0.00075375591513,  0.00000000000000 ]
      - [  0.00522564415205,  0.00000000000000 ]
      - [  0.03536258543646,  0.00000000000000 ]
    - # atom 6
      - [  0.00270087835504,  0.00000000000000 ]
      - [  0.00582928586255,  0.00000000000000 ]
      - [  0.40362106688322,  0.00000000000000 ]
    - # atom 7
      - [  0.00513420734833,  0.00000000000000 ]
      - [ -0.01364389000949,  0.00000000000000 ]
      - [  0.42084681549933,  0.00000000000000 ]
    - # atom 8
      - [ -0.01319650748594,  0.00000000000000 ]
      - [  0.04236433444750,  0.00000000000000 ]
      - [  0.25373077363026,  0.00000000000000 ]
    - # atom 9
      - [ -0.03359736344912,  0.00000000000000 ]
      - [  0.11767863492525,  0.00000000000000 ]
      - [  0.15280582937698,  0.00000000000000 ]
    - # atom 10
      - [  0.05641703491476,  0.00000000000000 ]
      - [ -0.18004634724549,  0.00000000000000 ]
      - [  0.17316491376889,  0.00000000000000 ]
    - # atom 11
      - [ -0.00124972795255,  0.00000000000000 ]
      - [  0.00047679694559,  0.00000000000000 ]
      - [ -0.14313294651873,  0.00000000000000 ]
    - # atom 12
      - [  0.00044710329315,  0.00000000000000 ]
      - [ -0.00014959342508,  0.00000000000000 ]
      - [  0.03555254060201,  0.00000000000000 ]
    - # atom 13
      - [  0.00205264154013,  0.00000000000000 ]
      - [  0.00187151791637,  0.00000000000000 ]
      - [  0.26266740022544,  0.00000000000000 ]
    - # atom 14
      - [ -0.00133612076707,  0.00000000000000 ]
      - [  0.00131361568806,  0.00000000000000 ]
      - [ -0.13876057306006,  0.00000000000000 ]
    - # atom 15
      - [  0.00035263105617,  0.00000000000000 ]
      - [  0.00117977147910,  0.00000000000000 ]
      - [  0.05014716848210,  0.00000000000000 ]
  - # 9
    frequency:    10.0826488899
    eigenvector:
    - # atom 1
      - [  0.28965598117688,  0.00000000000000 ]
      - [  0.12263221753927,  0.00000000000000 ]
      - [ -0.01890436249933,  0.00000000000000 ]
    - # atom 2
      - [ -0.02816422657219,  0.00000000000000 ]
      - [  0.17088088449780,  0.00000000000000 ]
      - [  0.01695580844781,  0.00000000000000 ]
    - # atom 3
      - [  0.33814172646780,  0.00000000000000 ]
      - [  0.00210717376095,  0.00000000000000 ]
      - [ -0.00171743420617,  0.00000000000000 ]
    - # atom 4
      - [  0.28086933081194,  0.00000000000000 ]
      - [ -0.13719239744168,  0.00000000000000 ]
      - [  0.01225416176297,  0.00000000000000 ]
    - # atom 5
      - [ -0.03808195818344,  0.00000000000000 ]
      - [ -0.17847108726457,  0.00000000000000 ]
      - [ -0.01792810175437,  0.00000000000000 ]
    - # atom 6
      - [ -0.14459178483348,  0.00000000000000 ]
      - [ -0.00543231914935,  0.00000000000000 ]
      - [  0.00287030075062,  0.00000000000000 ]
    - # atom 7
      - [ -0.50368350544096,  0.00000000000000 ]
      - [  0.01975942512530,  0.00000000000000 ]
      - [  0.00448772191263,  0.00000000000000 ]
    - # atom 8
      - [ -0.25135934353634,  0.00000000000000 ]
      - [ -0.22449751302049,  0.00000000000000 ]
      - [  0.01926706099537,  0.00000000000000 ]
    - # atom 9
      - [ -0.25513551416013,  0.00000000000000 ]
      - [  0.18562080549120,  0.00000000000000 ]
      - [ -0.01264959742802,  0.00000000000000 ]
    - # atom 10
      - [ -0.22612101544610,  0.00000000000000 ]
      - [  0.06993449122075,  0.00000000000000 ]
      - [ -0.00105279019858,  0.00000000000000 ]
    - # atom 11
      - [  0.11650172425630,  0.00000000000000 ]
      - [  0.09056166755831,  0.00000000000000 ]
      - [ -0.01232734319681,  0.00000000000000 ]
    - # atom 12
      - [ -0.03984525033125,  0.00000000000000 ]
      - [  0.10764889554507,  0.00000000000000 ]
      - [  0.01046817203780,  0.00000000000000 ]
    - # atom 13
      - [ -0.08651467276026,  0.00000000000000 ]
      - [ -0.00104035169184,  0.00000000000000 ]
      - [  0.00235315589053,  0.00000000000000 ]
    - # atom 14
      - [  0.11546220424840,  0.00000000000000 ]
      - [ -0.10125012989861,  0.00000000000000 ]
      - [  0.01049578480855,  0.00000000000000 ]
    - # atom 15
      - [ -0.04317249460310,  0.00000000000000 ]
      - [ -0.10724605814644,  0.00000000000000 ]
      - [ -0.00971296732830,  0.00000000000000 ]
  - # 10
    frequency:    11.9309809992
    eigenvector:
    - # atom 1
      - [  0.01439188067612,  0.00000000000000 ]
      - [  0.00487100580580,  0.00000000000000 ]
      - [  0.42404310645640,  0.00000000000000 ]
    - # atom 2
      - [ -0.00376428623091,  0.00000000000000 ]
      - [  0.00652586785571,  0.00000000000000 ]
      - [ -0.41650501916562,  0.00000000000000 ]
    - # atom 3
      - [  0.01511306794562,  0.00000000000000 ]
      - [  0.00008585717384,  0.00000000000000 ]
      - [  0.00182527584401,  0.00000000000000 ]
    - # atom 4
      - [  0.00879705244182,  0.00000000000000 ]
      - [ -0.00561548034284,  0.00000000000000 ]
      - [ -0.41854746488641,  0.00000000000000 ]
    - # atom 5
      - [  0.00083703089716,  0.00000000000000 ]
      - [ -0.00673474248924,  0.00000000000000 ]
      - [  0.42078953726041,  0.00000000000000 ]
    - # atom 6
      - [ -0.00585130762747,  0.00000000000000 ]
      - [ -0.00024634986211,  0.00000000000000 ]
      - [ -0.00319919153151,  0.00000000000000 ]
    - # atom 7
      - [ -0.02270196135370,  0.00000000000000 ]
      - [  0.00084063404987,  0.00000000000000 ]
      - [ -0.00115552312147,  0.00000000000000 ]
    - # atom 8
      - [ -0.00883898853399,  0.00000000000000 ]
      - [ -0.00699227385340,  0.00000000000000 ]
      - [ -0.00352278749002,  0.00000000000000 ]
    - # atom 9
      - [ -0.00910834962817,  0.00000000000000 ]
      - [  0.00058361934022,  0.00000000000000 ]
      - [ -0.00279946170113,  0.00000000000000 ]
    - # atom 10
      - [ -0.00763584760581,  0.00000000000000 ]
      - [  0.00778155892604,  0.00000000000000 ]
      - [ -0.00279216484683,  0.00000000000000 ]
    - # atom 11
      - [  0.00583199779703,  0.00000000000000 ]
      - [  0.00422135874188,  0.00000000000000 ]
      - [  0.26841239266424,  0.00000000000000 ]
    - # atom 12
      - [ -0.00300790864496,  0.00000000000000 ]
      - [  0.00441008521741,  0.00000000000000 ]
      - [ -0.27411907098454,  0.00000000000000 ]
    - # atom 13
      - [ -0.00322285189710,  0.00000000000000 ]
      - [ -0.00006253082638,  0.00000000000000 ]
      - [ -0.00713968310279,  0.00000000000000 ]
    - # atom 14
      - [  0.00237045249083,  0.00000000000000 ]
      - [ -0.00468323787766,  0.00000000000000 ]
      - [ -0.27124948811741,  0.00000000000000 ]
    - # atom 15
      - [  0.00006397340944,  0.00000000000000 ]
      - [ -0.00431547492755,  0.00000000000000 ]
      - [  0.26818100384447,  0.00000000000000 ]
  - # 11
    frequency:    13.7363328876
    eigenvector:
    - # atom 1
      - [  0.01072657912195,  0.00000000000000 ]
      - [ -0.00857000147843,  0.00000000000000 ]
      - [ -0.08856848923863,  0.00000000000000 ]
    - # atom 2
      - [  0.00919660029046,  0.00000000000000 ]
      - [ -0.01338369617620,  0.00000000000000 ]
      - [ -0.26122992264066,  0.00000000000000 ]
    - # atom 3
      - [  0.00310840641767,  0.00000000000000 ]
      - [  0.01923346402037,  0.00000000000000 ]
      - [  0.60029197190290,  0.00000000000000 ]
    - # atom 4
      - [ -0.01430984855024,  0.00000000000000 ]
      - [ -0.00762690267941,  0.00000000000000 ]
      - [ -0.08479636575649,  0.00000000000000 ]
    - # atom 5
      - [ -0.01236827733993,  0.00000000000000 ]
      - [ -0.01260724013661,  0.00000000000000 ]
      - [ -0.26135664408745,  0.00000000000000 ]
    - # atom 6
      - [  0.00273660071168,  0.00000000000000 ]
      - [ -0.02626074014085,  0.00000000000000 ]
      - [  0.39898794772898,  0.00000000000000 ]
    - # atom 7
      - [  0.00212244062746,  0.00000000000000 ]
      - [  0.04209240411178,  0.00000000000000 ]
      - [ -0.02503407612858,  0.00000000000000 ]
    - # atom 8
      - [  0.00373133091042,  0.00000000000000 ]
      - [ -0.03822129465843,  0.00000000000000 ]
      - [ -0.10348543287421,  0.00000000000000 ]
    - # atom 9
      - [ -0.00023422369509,  0.00000000000000 ]
      - [ -0.12531705751647,  0.00000000000000 ]
      - [ -0.08632526084138,  0.00000000000000 ]
    - # atom 10
      - [ -0.00280871676968,  0.00000000000000 ]
      - [  0.21179558604587,  0.00000000000000 ]
      - [ -0.08212212172707,  0.00000000000000 ]
    - # atom 11
      - [ -0.00006632611373,  0.00000000000000 ]
      - [ -0.00795452311318,  0.00000000000000 ]
      - [ -0.19519496071144,  0.00000000000000 ]
    - # atom 12
      - [  0.00028186985481,  0.00000000000000 ]
      - [ -0.00070726011170,  0.00000000000000 ]
      - [ -0.24088396600610,  0.00000000000000 ]
    - # atom 13
      - [  0.00135412779496,  0.00000000000000 ]
      - [ -0.00751243858847,  0.00000000000000 ]
      - [  0.19720235446433,  0.00000000000000 ]
    - # atom 14
      - [ -0.00357898929264,  0.00000000000000 ]
      - [ -0.00737188844169,  0.00000000000000 ]
      - [ -0.20232586893351,  0.00000000000000 ]
    - # atom 15
      - [ -0.00286458886662,  0.00000000000000 ]
      - [ -0.00012374476056,  0.00000000000000 ]
      - [ -0.24752831100311,  0.00000000000000 ]
  - # 12
    frequency:    15.4098983362
    eigenvector:
    - # atom 1
      - [ -0.19878627236196,  0.00000000000000 ]
      - [  0.08504257329588,  0.00000000000000 ]