mesh: [     1,     1,     1 ]
nqpoint: 1      
reciprocal_lattice:
- [   0.05172532,   0.00000000,   0.00000000 ] # a*
- [   0.00000000,   0.04804613,   0.00000000 ] # b*
- [   0.00000000,   0.00000000,   0.05957693 ] # c*
natom:   15     
lattice:
- [    19.332889999999999,     0.000000000000000,     0.000000000000000 ] # a
- [     0.000000000000000,    20.813330000000001,     0.000000000000000 ] # b
- [     0.000000000000000,     0.000000000000000,    16.785019999999999 ] # c
points:
- symbol: C  # 1
  coordinates: [  0.438028932390817,  0.513488683006549,  0.500208754278578 ]
  mass: 12.010700
- symbol: C  # 2
  coordinates: [  0.436958499073431,  0.446357115755940,  0.500468155601300 ]
  mass: 12.010700
- symbol: C  # 3
  coordinates: [  0.500709608064633,  0.547331592333426,  0.499798856468588 ]
  mass: 12.010700
- symbol: C  # 4
  coordinates: [  0.562495904337860,  0.511954669948462,  0.499322057382654 ]
  mass: 12.010700
- symbol: C  # 5
  coordinates: [  0.561728306849239,  0.444926100225647,  0.499607825541527 ]
  mass: 12.010700
- symbol: C  # 6
  coordinates: [  0.498848184488263,  0.411791764522614,  0.500248981642888 ]
  mass: 12.010700
- symbol: C  # 7
  coordinates: [  0.502233861552817,  0.619667585822728,  0.501042159760756 ]
  mass: 12.010700
- symbol: H  # 8
  coordinates: [  0.451636560466360,  0.640095692130066,  0.485619639430163 ]
  mass: 1.007940
- symbol: H  # 9
  coordinates: [  0.540710635863466,  0.638664840068746,  0.458983616253031 ]
  mass: 1.007940
- symbol: H  # 10
  coordinates: [  0.516309008911868,  0.637655909632412,  0.560562099667797 ]
  mass: 1.007940
- symbol: H  # 11
  coordinates: [  0.389336462997909,  0.540113919618924,  0.500185992016454 ]
  mass: 1.007940
- symbol: H  # 12
  coordinates: [  0.387566981226984,  0.421018350328385,  0.500672567848227 ]
  mass: 1.007940
- symbol: H  # 13
  coordinates: [  0.498176287561242,  0.359403828996561,  0.500334860984889 ]
  mass: 1.007940
- symbol: H  # 14
  coordinates: [  0.611869942143552,  0.537473577740255,  0.498591861299383 ]
  mass: 1.007940
- symbol: H  # 15
  coordinates: [  0.610416933463369,  0.418445493570307,  0.499159318570276 ]
  mass: 1.007940
phonon:
- q-position: [    0.0000000,    0.0000000,    0.0000000 ]
  weight: 1    
  band:
  - # 1
    frequency:    -0.3829686987
    eigenvector:
    - # atom 1
      - [  0.00113280749294,  0.00000000000000 ]
      - [  0.00312611690540,  0.00000000000000 ]
      - [  0.24238609172779,  0.00000000000000 ]
    - # atom 2
      - [ -0.00218146610212,  0.00000000000000 ]
      - [  0.00249856773167,  0.00000000000000 ]
      - [ -0.06125155023601,  0.00000000000000 ]
    - # atom 3
      - [  0.00233726874731,  0.00000000000000 ]
      - [  0.00123366796112,  0.00000000000000 ]
      - [  0.20720287037282,  0.00000000000000 ]
    - # atom 4
      - [ -0.00130691381870,  0.00000000000000 ]
      - [ -0.00036105148148,  0.00000000000000 ]
      - [ -0.14445422347294,  0.00000000000000 ]
    - # atom 5
      - [ -0.00457593914548,  0.00000000000000 ]
      - [ -0.00161906637127,  0.00000000000000 ]
      - [ -0.44881343304821,  0.00000000000000 ]
    - # atom 6
      - [ -0.00468215821086,  0.00000000000000 ]
      - [ -0.00030402336377,  0.00000000000000 ]
      - [ -0.40746469570348,  0.00000000000000 ]
    - # atom 7
      - [  0.00830494354730,  0.00000000000000 ]
      - [ -0.00356866243474,  0.00000000000000 ]
      - [  0.54233742110954,  0.00000000000000 ]
    - # atom 8
      - [ -0.00266365515084,  0.00000000000000 ]
      - [  0.01666815188870,  0.00000000000000 ]
      - [  0.20520709449645,  0.00000000000000 ]
    - # atom 9
      - [ -0.01163797103574,  0.00000000000000 ]
      - [  0.04442026973833,  0.00000000000000 ]
      - [  0.16793269022684,  0.00000000000000 ]
    - # atom 10
      - [  0.02269273768628,  0.00000000000000 ]
      - [ -0.06648748762111,  0.00000000000000 ]
      - [  0.17619785291249,  0.00000000000000 ]
    - # atom 11
      - [  0.00075514144063,  0.00000000000000 ]
      - [  0.00169145447279,  0.00000000000000 ]
      - [  0.14817196548596,  0.00000000000000 ]
    - # atom 12
      - [ -0.00090511985046,  0.00000000000000 ]
      - [  0.00128172871992,  0.00000000000000 ]
      - [ -0.00788934829920,  0.00000000000000 ]
    - # atom 13
      - [ -0.00224854772292,  0.00000000000000 ]
      - [ -0.00016683577099,  0.00000000000000 ]
      - [ -0.18692864284677,  0.00000000000000 ]
    - # atom 14
      - [ -0.00051190180282,  0.00000000000000 ]
      - [ -0.00012028944685,  0.00000000000000 ]
      - [ -0.05212218478027,  0.00000000000000 ]
    - # atom 15
      - [ -0.00212724294599,  0.00000000000000 ]
      - [ -0.00075811517515,  0.00000000000000 ]
      - [ -0.20873308009703,  0.00000000000000 ]
  - # 2
    frequency:    -0.3045242159
    eigenvector:
    - # atom 1
      - [  0.05056385338670,  0.00000000000000 ]
      - [  0.24445724942633,  0.00000000000000 ]
      - [ -0.00834391977717,  0.00000000000000 ]
    - # atom 2
      - [ -0.23369067313154,  0.00000000000000 ]
      - [  0.24860438206811,  0.00000000000000 ]
      - [ -0.00724453252873,  0.00000000000000 ]
    - # atom 3
      - [  0.19380379637850,  0.00000000000000 ]
      - [ -0.00195817761097,  0.00000000000000 ]
      - [ -0.00060716532042,  0.00000000000000 ]
    - # atom 4
      - [  0.04408942519286,  0.00000000000000 ]
      - [ -0.24506926343620,  0.00000000000000 ]
      - [  0.00868969840399,  0.00000000000000 ]
    - # atom 5
      - [ -0.23974343300310,  0.00000000000000 ]
      - [ -0.24199025700358,  0.00000000000000 ]
      - [  0.00984085470764,  0.00000000000000 ]
    - # atom 6
      - [ -0.38007121700691,  0.00000000000000 ]
      - [  0.00522834991618,  0.00000000000000 ]
      - [  0.00174802731943,  0.00000000000000 ]
    - # atom 7
      - [  0.50067494039263,  0.00000000000000 ]
      - [ -0.00783527791336,  0.00000000000000 ]
      - [ -0.00346159054395,  0.00000000000000 ]
    - # atom 8
      - [  0.16930800384813,  0.00000000000000 ]
      - [  0.05536212325973,  0.00000000000000 ]
      - [  0.00203185239189,  0.00000000000000 ]
    - # atom 9
      - [  0.16598252838571,  0.00000000000000 ]
      - [ -0.04656000875648,  0.00000000000000 ]
      - [ -0.00379242594766,  0.00000000000000 ]
    - # atom 10
      - [  0.17070430672036,  0.00000000000000 ]
      - [ -0.01772373286379,  0.00000000000000 ]
      - [ -0.00220768407959,  0.00000000000000 ]
    - # atom 11
      - [  0.04727095543383,  0.00000000000000 ]
      - [  0.12621100267388,  0.00000000000000 ]
      - [ -0.00442969049146,  0.00000000000000 ]
    - # atom 12
      - [ -0.09881399914402,  0.00000000000000 ]
      - [  0.12835656384911,  0.00000000000000 ]
      - [ -0.00386995633362,  0.00000000000000 ]
    - # atom 13
      - [ -0.17437215235026,  0.00000000000000 ]
      - [  0.00228407842412,  0.00000000000000 ]
      - [  0.00075822639989,  0.00000000000000 ]
    - # atom 14
      - [  0.04409550616720,  0.00000000000000 ]
      - [ -0.12725614653739,  0.00000000000000 ]
      - [  0.00438562969769,  0.00000000000000 ]
    - # atom 15
      - [ -0.10196052063871,  0.00000000000000 ]
      - [ -0.12563437753585,  0.00000000000000 ]
      - [  0.00497909099771,  0.00000000000000 ]
  - # 3
    frequency:    -0.0000010391
    eigenvector:
    - # atom 1
      - [ -0.36104703214206,  0.00000000000000 ]
      - [  0.00000000005549,  0.00000000000000 ]
      - [ -0.00000000007786,  0.00000000000000 ]
    - # atom 2
      - [ -0.36104703214263,  0.00000000000000 ]
      - [  0.00000000005550,  0.00000000000000 ]
      - [ -0.00000000007655,  0.00000000000000 ]
    - # atom 3
      - [ -0.36104703214177,  0.00000000000000 ]
      - [  0.00000000005497,  0.00000000000000 ]
      - [ -0.00000000008186,  0.00000000000000 ]
    - # atom 4
      - [ -0.36104703214211,  0.00000000000000 ]
      - [  0.00000000005447,  0.00000000000000 ]
      - [ -0.00000000008455,  0.00000000000000 ]
    - # atom 5
      - [ -0.36104703214268,  0.00000000000000 ]
      - [  0.00000000005447,  0.00000000000000 ]
      - [ -0.00000000008326,  0.00000000000000 ]
    - # atom 6
      - [ -0.36104703214293,  0.00000000000000 ]
      - [  0.00000000005499,  0.00000000000000 ]
      - [ -0.00000000007924,  0.00000000000000 ]
    - # atom 7
      - [ -0.36104703214112,  0.00000000000000 ]
      - [  0.00000000005498,  0.00000000000000 ]
      - [ -0.00000000008314,  0.00000000000000 ]
    - # atom 8
      - [ -0.10459163689611,  0.00000000000000 ]
      - [  0.00000000001598,  0.00000000000000 ]
      - [ -0.00000000002392,  0.00000000000000 ]
    - # atom 9
      - [ -0.10459163689623,  0.00000000000000 ]
      - [  0.00000000001567,  0.00000000000000 ]
      - [ -0.00000000002437,  0.00000000000000 ]
    - # atom 10
      - [ -0.10459163689579,  0.00000000000000 ]
      - [  0.00000000001613,  0.00000000000000 ]
      - [ -0.00000000002424,  0.00000000000000 ]
    - # atom 11
      - [ -0.10459163689630,  0.00000000000000 ]
      - [  0.00000000001619,  0.00000000000000 ]
      - [ -0.00000000002195,  0.00000000000000 ]
    - # atom 12
      - [ -0.10459163689659,  0.00000000000000 ]
      - [  0.00000000001619,  0.00000000000000 ]
      - [ -0.00000000002127,  0.00000000000000 ]
    - # atom 13
      - [ -0.10459163689675,  0.00000000000000 ]
      - [  0.00000000001593,  0.00000000000000 ]
      - [ -0.00000000002266,  0.00000000000000 ]
    - # atom 14
      - [ -0.10459163689632,  0.00000000000000 ]
      - [  0.00000000001566,  0.00000000000000 ]
      - [ -0.00000000002541,  0.00000000000000 ]
    - # atom 15
      - [ -0.10459163689662,  0.00000000000000 ]
      - [  0.00000000001566,  0.00000000000000 ]
      - [ -0.00000000002475,  0.00000000000000 ]
  - # 4
    frequency:    -0.0000010057
    eigenvector:
    - # atom 1
      - [ -0.00000000006578,  0.00000000000000 ]
      - [  0.08640255324886,  0.00000000000000 ]
      - [  0.35055607001664,  0.00000000000000 ]
    - # atom 2
      - [ -0.00000000006353,  0.00000000000000 ]
      - [  0.08640255324890,  0.00000000000000 ]
      - [  0.35055607002610,  0.00000000000000 ]
    - # atom 3
      - [ -0.00000000006695,  0.00000000000000 ]
      - [  0.08640255325070,  0.00000000000000 ]
      - [  0.35055606998865,  0.00000000000000 ]
    - # atom 4
      - [ -0.00000000006601,  0.00000000000000 ]
      - [  0.08640255325250,  0.00000000000000 ]
      - [  0.35055606997003,  0.00000000000000 ]
    - # atom 5
      - [ -0.00000000006377,  0.00000000000000 ]
      - [  0.08640255325247,  0.00000000000000 ]
      - [  0.35055606997933,  0.00000000000000 ]
    - # atom 6
      - [ -0.00000000006247,  0.00000000000000 ]
      - [  0.08640255325070,  0.00000000000000 ]
      - [  0.35055607000752,  0.00000000000000 ]
    - # atom 7
      - [ -0.00000000006915,  0.00000000000000 ]
      - [  0.08640255325086,  0.00000000000000 ]
      - [  0.35055606997950,  0.00000000000000 ]
    - # atom 8
      - [ -0.00000000002057,  0.00000000000000 ]
      - [  0.02502993702123,  0.00000000000000 ]
      - [  0.10155251232999,  0.00000000000000 ]
    - # atom 9
      - [ -0.00000000002110,  0.00000000000000 ]
      - [  0.02502993702124,  0.00000000000000 ]
      - [  0.10155251232786,  0.00000000000000 ]
    - # atom 10
      - [ -0.00000000001901,  0.00000000000000 ]
      - [  0.02502993702391,  0.00000000000000 ]
      - [  0.10155251232849,  0.00000000000000 ]
    - # atom 11
      - [ -0.00000000001931,  0.00000000000000 ]
      - [  0.02502993702110,  0.00000000000000 ]
      - [  0.10155251234440,  0.00000000000000 ]
    - # atom 12
      - [ -0.00000000001815,  0.00000000000000 ]
      - [  0.02502993702111,  0.00000000000000 ]
      - [  0.10155251234927,  0.00000000000000 ]
    - # atom 13
      - [ -0.00000000001761,  0.00000000000000 ]
      - [  0.02502993702205,  0.00000000000000 ]
      - [  0.10155251233966,  0.00000000000000 ]
    - # atom 14
      - [ -0.00000000001943,  0.00000000000000 ]
      - [  0.02502993702299,  0.00000000000000 ]
      - [  0.10155251232027,  0.00000000000000 ]
    - # atom 15
      - [ -0.00000000001827,  0.00000000000000 ]
      - [  0.02502993702298,  0.00000000000000 ]
      - [  0.10155251232506,  0.00000000000000 ]
  - # 5
    frequency:     0.0000013513
    eigenvector:
    - # atom 1
      - [  0.00000000007284,  0.00000000000000 ]
      - [  0.35055606999562,  0.00000000000000 ]
      - [ -0.08640255326035,  0.00000000000000 ]
    - # atom 2
      - [  0.00000000007223,  0.00000000000000 ]
      - [  0.35055606999561,  0.00000000000000 ]
      - [ -0.08640255326190,  0.00000000000000 ]
    - # atom 3
      - [  0.00000000007317,  0.00000000000000 ]
      - [  0.35055606999512,  0.00000000000000 ]
      - [ -0.08640255324967,  0.00000000000000 ]
    - # atom 4
      - [  0.00000000007295,  0.00000000000000 ]
      - [  0.35055606999463,  0.00000000000000 ]
      - [ -0.08640255324043,  0.00000000000000 ]
    - # atom 5
      - [  0.00000000007234,  0.00000000000000 ]
      - [  0.35055606999465,  0.00000000000000 ]
      - [ -0.08640255324191,  0.00000000000000 ]
    - # atom 6
      - [  0.00000000007195,  0.00000000000000 ]
      - [  0.35055606999513,  0.00000000000000 ]
      - [ -0.08640255325270,  0.00000000000000 ]
    - # atom 7
      - [  0.00000000007371,  0.00000000000000 ]
      - [  0.35055606999509,  0.00000000000000 ]
      - [ -0.08640255324837,  0.00000000000000 ]
    - # atom 8
      - [  0.00000000002164,  0.00000000000000 ]
      - [  0.10155251233412,  0.00000000000000 ]
      - [ -0.02502993702217,  0.00000000000000 ]
    - # atom 9
      - [  0.00000000002202,  0.00000000000000 ]
      - [  0.10155251233402,  0.00000000000000 ]
      - [ -0.02502993702065,  0.00000000000000 ]
    - # atom 10
      - [  0.00000000002054,  0.00000000000000 ]
      - [  0.10155251233370,  0.00000000000000 ]
      - [ -0.02502993702107,  0.00000000000000 ]
    - # atom 11
      - [  0.00000000002117,  0.00000000000000 ]
      - [  0.10155251233422,  0.00000000000000 ]
      - [ -0.02502993702693,  0.00000000000000 ]
    - # atom 12
      - [  0.00000000002085,  0.00000000000000 ]
      - [  0.10155251233421,  0.00000000000000 ]
      - [ -0.02502993702773,  0.00000000000000 ]
    - # atom 13
      - [  0.00000000002071,  0.00000000000000 ]
      - [  0.10155251233396,  0.00000000000000 ]
      - [ -0.02502993702297,  0.00000000000000 ]
    - # atom 14
      - [  0.00000000002123,  0.00000000000000 ]
      - [  0.10155251233371,  0.00000000000000 ]
      - [ -0.02502993701662,  0.00000000000000 ]
    - # atom 15
      - [  0.00000000002091,  0.00000000000000 ]
      - [  0.10155251233371,  0.00000000000000 ]
      - [ -0.02502993701738,  0.00000000000000 ]
  - # 6
    frequency:     0.0917634241
    eigenvector:
    - # atom 1
      - [ -0.00170705465195,  0.00000000000000 ]
      - [ -0.00335112734000,  0.00000000000000 ]
      - [ -0.36862769983843,  0.00000000000000 ]
    - # atom 2
      - [  0.00073814535170,  0.00000000000000 ]
      - [ -0.00461030004025,  0.00000000000000 ]
      - [ -0.52459349184015,  0.00000000000000 ]
    - # atom 3
      - [ -0.00218065058009,  0.00000000000000 ]
      - [  0.00061869258593,  0.00000000000000 ]
      - [  0.10668832076170,  0.00000000000000 ]
    - # atom 4
      - [  0.00327619226768,  0.00000000000000 ]
      - [  0.00456257468200,  0.00000000000000 ]
      - [  0.42748202817445,  0.00000000000000 ]
    - # atom 5
      - [  0.00563105862563,  0.00000000000000 ]
      - [  0.00472865978713,  0.00000000000000 ]
      - [  0.27411764693767,  0.00000000000000 ]
    - # atom 6
      - [  0.00352389969592,  0.00000000000000 ]
      - [ -0.00036069936411,  0.00000000000000 ]
      - [ -0.20460061716062,  0.00000000000000 ]
    - # atom 7
      - [ -0.00868167263878,  0.00000000000000 ]
      - [ -0.00122834894045,  0.00000000000000 ]
      - [  0.25761932399493,  0.00000000000000 ]
    - # atom 8
      - [  0.00377486310147,  0.00000000000000 ]
      - [  0.00604277829483,  0.00000000000000 ]
      - [  0.06182594076015,  0.00000000000000 ]
    - # atom 9
      - [  0.01435010703462,  0.00000000000000 ]
      - [  0.01988211801031,  0.00000000000000 ]
      - [  0.10331276973883,  0.00000000000000 ]
    - # atom 10
      - [ -0.02604228638924,  0.00000000000000 ]
      - [ -0.02788634773363,  0.00000000000000 ]
      - [  0.09115882313781,  0.00000000000000 ]
    - # atom 11
      - [ -0.00088771582062,  0.00000000000000 ]
      - [ -0.00172369442152,  0.00000000000000 ]
      - [ -0.17923995058356,  0.00000000000000 ]
    - # atom 12
      - [  0.00028760675073,  0.00000000000000 ]
      - [ -0.00216397043870,  0.00000000000000 ]
      - [ -0.25959930790066,  0.00000000000000 ]
    - # atom 13
      - [  0.00188269384294,  0.00000000000000 ]
      - [ -0.00016173828911,  0.00000000000000 ]
      - [ -0.09401681919418,  0.00000000000000 ]
    - # atom 14
      - [  0.00176044747430,  0.00000000000000 ]
      - [  0.00242395952997,  0.00000000000000 ]
      - [  0.23286966702203,  0.00000000000000 ]
    - # atom 15
      - [  0.00280338566617,  0.00000000000000 ]
      - [  0.00234608018362,  0.00000000000000 ]
      - [  0.15385668707982,  0.00000000000000 ]
  - # 7
    frequency:     0.7394042767
    eigenvector:
    - # atom 1
      - [ -0.00590190872064,  0.00000000000000 ]
      - [ -0.00606873284332,  0.00000000000000 ]
      - [  0.01033887345133,  0.00000000000000 ]
    - # atom 2
      - [  0.00179876081324,  0.00000000000000 ]
      - [ -0.01201010972665,  0.00000000000000 ]
      - [ -0.02826729432234,  0.00000000000000 ]
    - # atom 3
      - [ -0.01617305535001,  0.00000000000000 ]
      - [  0.00003484911138,  0.00000000000000 ]
      - [  0.04068991701566,  0.00000000000000 ]
    - # atom 4
      - [ -0.00581371673513,  0.00000000000000 ]
      - [  0.00561588451090,  0.00000000000000 ]
      - [  0.05678927326244,  0.00000000000000 ]
    - # atom 5
      - [  0.00230598628134,  0.00000000000000 ]
      - [  0.01103504662114,  0.00000000000000 ]
      - [  0.01839439091439,  0.00000000000000 ]
    - # atom 6
      - [  0.00263095313066,  0.00000000000000 ]
      - [ -0.00063983816120,  0.00000000000000 ]
      - [ -0.02945742801434,  0.00000000000000 ]
    - # atom 7
      - [  0.00992301501296,  0.00000000000000 ]
      - [  0.00162045234092,  0.00000000000000 ]
      - [ -0.04957492470208,  0.00000000000000 ]
    - # atom 8
      - [ -0.13975575154519,  0.00000000000000 ]
      - [ -0.00459929383335,  0.00000000000000 ]
      - [  0.51990423640309,  0.00000000000000 ]
    - # atom 9
      - [ -0.39175158571074,  0.00000000000000 ]
      - [ -0.00643578382120,  0.00000000000000 ]
      - [ -0.43732306183796,  0.00000000000000 ]
    - # atom 10
      - [  0.56819594761799,  0.00000000000000 ]
      - [  0.01311078491690,  0.00000000000000 ]
      - [ -0.17452717449607,  0.00000000000000 ]
    - # atom 11
      - [ -0.00237422460051,  0.00000000000000 ]
      - [ -0.00320221365796,  0.00000000000000 ]
      - [  0.00818127161666,  0.00000000000000 ]
    - # atom 12
      - [  0.00124249156529,  0.00000000000000 ]
      - [ -0.00475831165607,  0.00000000000000 ]
      - [ -0.01209713784796,  0.00000000000000 ]
    - # atom 13
      - [  0.00364373700718,  0.00000000000000 ]
      - [ -0.00022683737469,  0.00000000000000 ]
      - [ -0.01371266908001,  0.00000000000000 ]
    - # atom 14
      - [ -0.00199616745291,  0.00000000000000 ]
      - [  0.00294697479359,  0.00000000000000 ]
      - [  0.03221306992396,  0.00000000000000 ]
    - # atom 15
      - [  0.00156104010849,  0.00000000000000 ]
      - [  0.00458843863293,  0.00000000000000 ]
      - [  0.01207504990519,  0.00000000000000 ]
  - # 8
    frequency:     6.0063815370
    eigenvector:
    - # atom 1
      - [ -0.00455900464711,  0.00000000000000 ]
      - [  0.00155837488583,  0.00000000000000 ]
      - [ -0.38134497245886,  0.00000000000000 ]
    - # atom 2
      - [ -0.00036624565442,  0.00000000000000 ]
      - [  0.00223009763795,  0.00000000000000 ]
      - [  0.00914569772154,  0.00000000000000 ]
    - # atom 3
      - [ -0.00416313885325,  0.00000000000000 ]
      - [  0.00029898567862,  0.00000000000000 ]
      - [ -0.30279509704822,  0.00000000000000 ]
    - # atom 4
      - [ -0.00236539496053,  0.00000000000000 ]
      - [  0.00293702008569,  0.00000000000000 ]
      - [ -0.37202642331654,  0.00000000000000 ]
    - # atom 5
      - [  0.00075375591514,  0.00000000000000 ]
      - [  0.00522564415205,  0.00000000000000 ]
      - [  0.03536258543647,  0.00000000000000 ]
    - # atom 6
      - [  0.00270087835504,  0.00000000000000 ]
      - [  0.00582928586255,  0.00000000000000 ]
      - [  0.40362106688323,  0.00000000000000 ]
    - # atom 7
      - [  0.00513420734832,  0.00000000000000 ]
      - [ -0.01364389000950,  0.00000000000000 ]
      - [  0.42084681549936,  0.00000000000000 ]
    - # atom 8
      - [ -0.01319650748594,  0.00000000000000 ]
      - [  0.04236433444749,  0.00000000000000 ]
      - [  0.25373077363025,  0.00000000000000 ]
    - # atom 9
      - [ -0.03359736344912,  0.00000000000000 ]
      - [  0.11767863492525,  0.00000000000000 ]
      - [  0.15280582937700,  0.00000000000000 ]
    - # atom 10
      - [  0.05641703491475,  0.00000000000000 ]
      - [ -0.18004634724550,  0.00000000000000 ]
      - [  0.17316491376890,  0.00000000000000 ]
    - # atom 11
      - [ -0.00124972795255,  0.00000000000000 ]
      - [  0.00047679694559,  0.00000000000000 ]
      - [ -0.14313294651873,  0.00000000000000 ]
    - # atom 12
      - [  0.00044710329315,  0.00000000000000 ]
      - [ -0.00014959342508,  0.00000000000000 ]
      - [  0.03555254060201,  0.00000000000000 ]
    - # atom 13
      - [  0.00205264154013,  0.00000000000000 ]
      - [  0.00187151791637,  0.00000000000000 ]
      - [  0.26266740022544,  0.00000000000000 ]
    - # atom 14
      - [ -0.00133612076707,  0.00000000000000 ]
      - [  0.00131361568806,  0.00000000000000 ]
      - [ -0.13876057306005,  0.00000000000000 ]
    - # atom 15
      - [  0.00035263105617,  0.00000000000000 ]
      - [  0.00117977147910,  0.00000000000000 ]
      - [  0.05014716848210,  0.00000000000000 ]
  - # 9
    frequency:    10.0826488899
    eigenvector:
    - # atom 1
      - [  0.28965598117688,  0.00000000000000 ]
      - [  0.12263221753927,  0.00000000000000 ]
      - [ -0.01890436249933,  0.00000000000000 ]
    - # atom 2
      - [ -0.02816422657219,  0.00000000000000 ]
      - [  0.17088088449780,  0.00000000000000 ]
      - [  0.01695580844782,  0.00000000000000 ]
    - # atom 3
      - [  0.33814172646780,  0.00000000000000 ]
      - [  0.00210717376096,  0.00000000000000 ]
      - [ -0.00171743420617,  0.00000000000000 ]
    - # atom 4
      - [  0.28086933081194,  0.00000000000000 ]
      - [ -0.13719239744168,  0.00000000000000 ]
      - [  0.01225416176298,  0.00000000000000 ]
    - # atom 5
      - [ -0.03808195818345,  0.00000000000000 ]
      - [ -0.17847108726457,  0.00000000000000 ]
      - [ -0.01792810175438,  0.00000000000000 ]
    - # atom 6
      - [ -0.14459178483348,  0.00000000000000 ]
      - [ -0.00543231914935,  0.00000000000000 ]
      - [  0.00287030075061,  0.00000000000000 ]
    - # atom 7
      - [ -0.50368350544097,  0.00000000000000 ]
      - [  0.01975942512531,  0.00000000000000 ]
      - [  0.00448772191262,  0.00000000000000 ]
    - # atom 8
      - [ -0.25135934353634,  0.00000000000000 ]
      - [ -0.22449751302049,  0.00000000000000 ]
      - [  0.01926706099537,  0.00000000000000 ]
    - # atom 9
      - [ -0.25513551416013,  0.00000000000000 ]
      - [  0.18562080549120,  0.00000000000000 ]
      - [ -0.01264959742802,  0.00000000000000 ]
    - # atom 10
      - [ -0.22612101544610,  0.00000000000000 ]
      - [  0.06993449122076,  0.00000000000000 ]
      - [ -0.00105279019858,  0.00000000000000 ]
    - # atom 11
      - [  0.11650172425630,  0.00000000000000 ]
      - [  0.09056166755831,  0.00000000000000 ]
      - [ -0.01232734319681,  0.00000000000000 ]
    - # atom 12
      - [ -0.03984525033125,  0.00000000000000 ]
      - [  0.10764889554507,  0.00000000000000 ]
      - [  0.01046817203780,  0.00000000000000 ]
    - # atom 13
      - [ -0.08651467276026,  0.00000000000000 ]
      - [ -0.00104035169184,  0.00000000000000 ]
      - [  0.00235315589053,  0.00000000000000 ]
    - # atom 14
      - [  0.11546220424840,  0.00000000000000 ]
      - [ -0.10125012989862,  0.00000000000000 ]
      - [  0.01049578480856,  0.00000000000000 ]
    - # atom 15
      - [ -0.04317249460310,  0.00000000000000 ]
      - [ -0.10724605814644,  0.00000000000000 ]
      - [ -0.00971296732831,  0.00000000000000 ]
  - # 10
    frequency:    11.9309809992
    eigenvector:
    - # atom 1
      - [  0.01439188067612,  0.00000000000000 ]
      - [  0.00487100580580,  0.00000000000000 ]
      - [  0.42404310645641,  0.00000000000000 ]
    - # atom 2
      - [ -0.00376428623091,  0.00000000000000 ]
      - [  0.00652586785572,  0.00000000000000 ]
      - [ -0.41650501916562,  0.00000000000000 ]
    - # atom 3
      - [  0.01511306794562,  0.00000000000000 ]
      - [  0.00008585717385,  0.00000000000000 ]
      - [  0.00182527584402,  0.00000000000000 ]
    - # atom 4
      - [  0.00879705244182,  0.00000000000000 ]
      - [ -0.00561548034284,  0.00000000000000 ]
      - [ -0.41854746488641,  0.00000000000000 ]
    - # atom 5
      - [  0.00083703089715,  0.00000000000000 ]
      - [ -0.00673474248925,  0.00000000000000 ]
      - [  0.42078953726040,  0.00000000000000 ]
    - # atom 6
      - [ -0.00585130762747,  0.00000000000000 ]
      - [ -0.00024634986211,  0.00000000000000 ]
      - [ -0.00319919153150,  0.00000000000000 ]
    - # atom 7
      - [ -0.02270196135370,  0.00000000000000 ]
      - [  0.00084063404987,  0.00000000000000 ]
      - [ -0.00115552312147,  0.00000000000000 ]
    - # atom 8
      - [ -0.00883898853400,  0.00000000000000 ]
      - [ -0.00699227385340,  0.00000000000000 ]
      - [ -0.00352278749002,  0.00000000000000 ]
    - # atom 9
      - [ -0.00910834962818,  0.00000000000000 ]
      - [  0.00058361934022,  0.00000000000000 ]
      - [ -0.00279946170113,  0.00000000000000 ]
    - # atom 10
      - [ -0.00763584760581,  0.00000000000000 ]
      - [  0.00778155892605,  0.00000000000000 ]
      - [ -0.00279216484684,  0.00000000000000 ]
    - # atom 11
      - [  0.00583199779704,  0.00000000000000 ]
      - [  0.00422135874188,  0.00000000000000 ]
      - [  0.26841239266424,  0.00000000000000 ]
    - # atom 12
      - [ -0.00300790864496,  0.00000000000000 ]
      - [  0.00441008521741,  0.00000000000000 ]
      - [ -0.27411907098454,  0.00000000000000 ]
    - # atom 13
      - [ -0.00322285189710,  0.00000000000000 ]
      - [ -0.00006253082638,  0.00000000000000 ]
      - [ -0.00713968310278,  0.00000000000000 ]
    - # atom 14
      - [  0.00237045249083,  0.00000000000000 ]
      - [ -0.00468323787766,  0.00000000000000 ]
      - [ -0.27124948811741,  0.00000000000000 ]
    - # atom 15
      - [  0.00006397340944,  0.00000000000000 ]
      - [ -0.00431547492755,  0.00000000000000 ]
      - [  0.26818100384447,  0.00000000000000 ]
  - # 11
    frequency:    13.7363328876
    eigenvector:
    - # atom 1
      - [  0.01072657912195,  0.00000000000000 ]
      - [ -0.00857000147843,  0.00000000000000 ]
      - [ -0.08856848923863,  0.00000000000000 ]
    - # atom 2
      - [  0.00919660029045,  0.00000000000000 ]
      - [ -0.01338369617620,  0.00000000000000 ]
      - [ -0.26122992264065,  0.00000000000000 ]
    - # atom 3
      - [  0.00310840641767,  0.00000000000000 ]
      - [  0.01923346402037,  0.00000000000000 ]
      - [  0.60029197190291,  0.00000000000000 ]
    - # atom 4
      - [ -0.01430984855024,  0.00000000000000 ]
      - [ -0.00762690267941,  0.00000000000000 ]
      - [ -0.08479636575650,  0.00000000000000 ]
    - # atom 5
      - [ -0.01236827733993,  0.00000000000000 ]
      - [ -0.01260724013661,  0.00000000000000 ]
      - [ -0.26135664408746,  0.00000000000000 ]
    - # atom 6
      - [  0.00273660071168,  0.00000000000000 ]
      - [ -0.02626074014085,  0.00000000000000 ]
      - [  0.39898794772898,  0.00000000000000 ]
    - # atom 7
      - [  0.00212244062747,  0.00000000000000 ]
      - [  0.04209240411177,  0.00000000000000 ]
      - [ -0.02503407612859,  0.00000000000000 ]
    - # atom 8
      - [  0.00373133091042,  0.00000000000000 ]
      - [ -0.03822129465843,  0.00000000000000 ]
      - [ -0.10348543287421,  0.00000000000000 ]
    - # atom 9
      - [ -0.00023422369509,  0.00000000000000 ]
      - [ -0.12531705751647,  0.00000000000000 ]
      - [ -0.08632526084138,  0.00000000000000 ]
    - # atom 10
      - [ -0.00280871676968,  0.00000000000000 ]
      - [  0.21179558604587,  0.00000000000000 ]
      - [ -0.08212212172707,  0.00000000000000 ]
    - # atom 11
      - [ -0.00006632611373,  0.00000000000000 ]
      - [ -0.00795452311318,  0.00000000000000 ]
      - [ -0.19519496071145,  0.00000000000000 ]
    - # atom 12
      - [  0.00028186985481,  0.00000000000000 ]
      - [ -0.00070726011170,  0.00000000000000 ]
      - [ -0.24088396600609,  0.00000000000000 ]
    - # atom 13
      - [  0.00135412779496,  0.00000000000000 ]
      - [ -0.00751243858847,  0.00000000000000 ]
      - [  0.19720235446433,  0.00000000000000 ]
    - # atom 14
      - [ -0.00357898929264,  0.00000000000000 ]
      - [ -0.00737188844169,  0.00000000000000 ]
      - [ -0.20232586893351,  0.00000000000000 ]
    - # atom 15
      - [ -0.00286458886662,  0.00000000000000 ]
      - [ -0.00012374476056,  0.00000000000000 ]
      - [ -0.24752831100312,  0.00000000000000 ]
  - # 12
    frequency:    15.4098983362
    eigenvector:
    - # atom 1
      - [ -0.19878627236196,  0.00000000000000 ]
      - [  0.08504257329588,  0.00000000000000 ]
      - [  0.00411453825912,  0.00000000000000 ]
    - # atom 2
      - [ -0.19084956423205,  0.00000000000000 ]