phonopy:
  version: 1.12.2
  configuration:
    displacement_distance: "0.005"
    cell_filename: "../POSCAR"
    create_displacements: ".true."
    dim: "1 1 1"

supercell_matrix:
- [   1,   0,   0 ]
- [   0,   1,   0 ]
- [   0,   0,   1 ]

space_group:
  type: "P1"
  number: 1
  Hall_symbol: "P 1"

primitive_cell:
  lattice:
  - [    19.332889999999999,     0.000000000000000,     0.000000000000000 ] # a
  - [     0.000000000000000,    20.813330000000001,     0.000000000000000 ] # b
  - [     0.000000000000000,     0.000000000000000,    16.785019999999999 ] # c
  points:
  - symbol: C  # 1
    coordinates: [  0.438028932390817,  0.513488683006549,  0.500208754278578 ]
    mass: 12.010700
  - symbol: C  # 2
    coordinates: [  0.436958499073431,  0.446357115755940,  0.500468155601300 ]
    mass: 12.010700
  - symbol: C  # 3
    coordinates: [  0.500709608064633,  0.547331592333426,  0.499798856468588 ]
    mass: 12.010700
  - symbol: C  # 4
    coordinates: [  0.562495904337860,  0.511954669948462,  0.499322057382654 ]
    mass: 12.010700
  - symbol: C  # 5
    coordinates: [  0.561728306849239,  0.444926100225647,  0.499607825541527 ]
    mass: 12.010700
  - symbol: C  # 6
    coordinates: [  0.498848184488263,  0.411791764522614,  0.500248981642888 ]
    mass: 12.010700
  - symbol: C  # 7
    coordinates: [  0.502233861552817,  0.619667585822728,  0.501042159760756 ]
    mass: 12.010700
  - symbol: H  # 8
    coordinates: [  0.451636560466360,  0.640095692130066,  0.485619639430163 ]
    mass: 1.007940
  - symbol: H  # 9
    coordinates: [  0.540710635863466,  0.638664840068746,  0.458983616253031 ]
    mass: 1.007940
  - symbol: H  # 10
    coordinates: [  0.516309008911868,  0.637655909632412,  0.560562099667797 ]
    mass: 1.007940
  - symbol: H  # 11
    coordinates: [  0.389336462997909,  0.540113919618924,  0.500185992016454 ]
    mass: 1.007940
  - symbol: H  # 12
    coordinates: [  0.387566981226984,  0.421018350328385,  0.500672567848227 ]
    mass: 1.007940
  - symbol: H  # 13
    coordinates: [  0.498176287561242,  0.359403828996561,  0.500334860984889 ]
    mass: 1.007940
  - symbol: H  # 14
    coordinates: [  0.611869942143552,  0.537473577740255,  0.498591861299383 ]
    mass: 1.007940
  - symbol: H  # 15
    coordinates: [  0.610416933463369,  0.418445493570307,  0.499159318570276 ]
    mass: 1.007940
  reciprocal_lattice: # without 2pi
  - [     0.051725324046224,     0.000000000000000,     0.000000000000000 ] # a*
  - [     0.000000000000000,     0.048046131974076,     0.000000000000000 ] # b*
  - [     0.000000000000000,     0.000000000000000,     0.059576932288433 ] # c*

unit_cell:
  lattice:
  - [    19.332889999999999,     0.000000000000000,     0.000000000000000 ] # a
  - [     0.000000000000000,    20.813330000000001,     0.000000000000000 ] # b
  - [     0.000000000000000,     0.000000000000000,    16.785019999999999 ] # c
  points:
  - symbol: C  # 1
    coordinates: [  0.438028932390817,  0.513488683006549,  0.500208754278578 ]
    mass: 12.010700
    reduced_to: 1
  - symbol: C  # 2
    coordinates: [  0.436958499073431,  0.446357115755940,  0.500468155601300 ]
    mass: 12.010700
    reduced_to: 2
  - symbol: C  # 3
    coordinates: [  0.500709608064633,  0.547331592333426,  0.499798856468588 ]
    mass: 12.010700
    reduced_to: 3
  - symbol: C  # 4
    coordinates: [  0.562495904337860,  0.511954669948462,  0.499322057382654 ]
    mass: 12.010700
    reduced_to: 4
  - symbol: C  # 5
    coordinates: [  0.561728306849239,  0.444926100225647,  0.499607825541527 ]
    mass: 12.010700
    reduced_to: 5
  - symbol: C  # 6
    coordinates: [  0.498848184488263,  0.411791764522614,  0.500248981642888 ]
    mass: 12.010700
    reduced_to: 6
  - symbol: C  # 7
    coordinates: [  0.502233861552817,  0.619667585822728,  0.501042159760756 ]
    mass: 12.010700
    reduced_to: 7
  - symbol: H  # 8
    coordinates: [  0.451636560466360,  0.640095692130066,  0.485619639430163 ]
    mass: 1.007940
    reduced_to: 8
  - symbol: H  # 9
    coordinates: [  0.540710635863466,  0.638664840068746,  0.458983616253031 ]
    mass: 1.007940
    reduced_to: 9
  - symbol: H  # 10
    coordinates: [  0.516309008911868,  0.637655909632412,  0.560562099667797 ]
    mass: 1.007940
    reduced_to: 10
  - symbol: H  # 11
    coordinates: [  0.389336462997909,  0.540113919618924,  0.500185992016454 ]
    mass: 1.007940
    reduced_to: 11
  - symbol: H  # 12
    coordinates: [  0.387566981226984,  0.421018350328385,  0.500672567848227 ]
    mass: 1.007940
    reduced_to: 12
  - symbol: H  # 13
    coordinates: [  0.498176287561242,  0.359403828996561,  0.500334860984889 ]
    mass: 1.007940
    reduced_to: 13
  - symbol: H  # 14
    coordinates: [  0.611869942143552,  0.537473577740255,  0.498591861299383 ]
    mass: 1.007940
    reduced_to: 14
  - symbol: H  # 15
    coordinates: [  0.610416933463369,  0.418445493570307,  0.499159318570276 ]
    mass: 1.007940
    reduced_to: 15

supercell:
  lattice:
  - [    19.332889999999999,     0.000000000000000,     0.000000000000000 ] # a
  - [     0.000000000000000,    20.813330000000001,     0.000000000000000 ] # b
  - [     0.000000000000000,     0.000000000000000,    16.785019999999999 ] # c
  points:
  - symbol: C  # 1
    coordinates: [  0.438028932390817,  0.513488683006549,  0.500208754278578 ]
    mass: 12.010700
    reduced_to: 1
  - symbol: C  # 2
    coordinates: [  0.436958499073431,  0.446357115755940,  0.500468155601300 ]
    mass: 12.010700
    reduced_to: 2
  - symbol: C  # 3
    coordinates: [  0.500709608064633,  0.547331592333426,  0.499798856468588 ]
    mass: 12.010700
    reduced_to: 3
  - symbol: C  # 4
    coordinates: [  0.562495904337860,  0.511954669948462,  0.499322057382654 ]
    mass: 12.010700
    reduced_to: 4
  - symbol: C  # 5
    coordinates: [  0.561728306849239,  0.444926100225647,  0.499607825541527 ]
    mass: 12.010700
    reduced_to: 5
  - symbol: C  # 6
    coordinates: [  0.498848184488263,  0.411791764522614,  0.500248981642888 ]
    mass: 12.010700
    reduced_to: 6
  - symbol: C  # 7
    coordinates: [  0.502233861552817,  0.619667585822728,  0.501042159760756 ]
    mass: 12.010700
    reduced_to: 7
  - symbol: H  # 8
    coordinates: [  0.451636560466360,  0.640095692130066,  0.485619639430163 ]
    mass: 1.007940
    reduced_to: 8
  - symbol: H  # 9
    coordinates: [  0.540710635863466,  0.638664840068746,  0.458983616253031 ]
    mass: 1.007940
    reduced_to: 9
  - symbol: H  # 10
    coordinates: [  0.516309008911868,  0.637655909632412,  0.560562099667797 ]
    mass: 1.007940
    reduced_to: 10
  - symbol: H  # 11
    coordinates: [  0.389336462997909,  0.540113919618924,  0.500185992016454 ]
    mass: 1.007940
    reduced_to: 11
  - symbol: H  # 12
    coordinates: [  0.387566981226984,  0.421018350328385,  0.500672567848227 ]
    mass: 1.007940
    reduced_to: 12
  - symbol: H  # 13
    coordinates: [  0.498176287561242,  0.359403828996561,  0.500334860984889 ]
    mass: 1.007940
    reduced_to: 13
  - symbol: H  # 14
    coordinates: [  0.611869942143552,  0.537473577740255,  0.498591861299383 ]
    mass: 1.007940
    reduced_to: 14
  - symbol: H  # 15
    coordinates: [  0.610416933463369,  0.418445493570307,  0.499159318570276 ]
    mass: 1.007940
    reduced_to: 15
