14.400
   1.0295810  -0.0002460   0.0000000  -0.0002460   1.0375990   0.0000000   0.0000000   0.0000000   1.0158820
   0.0046500  -0.1111400   0.0000000   0.1052900   0.0877000   0.0000000  -0.0000000   0.0000000  -0.0785500
   0.0373300   0.1643200   0.0000000   0.1343100  -0.0992100   0.0000000  -0.0000000  -0.0000000  -0.1244900
  -0.0513000   0.0013200   0.0000000   0.0168900  -0.6053700   0.0000000   0.0000000   0.0000000  -0.0206900
  -0.0066400   0.1001100   0.0000000  -0.0967600   0.1082000   0.0000000   0.0000000   0.0000000  -0.0817800
   0.0540500  -0.1435700   0.0000000  -0.1332500  -0.1366900   0.0000000   0.0000000  -0.0000000  -0.1281400
   0.0493500  -0.0015300   0.0000000   0.0060300   0.1027200   0.0000000  -0.0000000  -0.0000000  -0.1045600
   1.4846800   0.0509900   0.0000000   0.1082000   1.9828000   0.0000000   0.0000000   0.0000000   0.2477700
   0.2596800   0.0699500   0.0000000   0.1297100   0.2638300   0.0000000   0.0000000  -0.0000000   0.3107300
   0.0153100   0.0530400   0.0000000   0.0293800   0.0956500   0.0000000  -0.0000000  -0.0000000   0.1235300
  -0.0407900  -0.0649000   0.0000000  -0.0730900   0.0153600   0.0000000  -0.0000000  -0.0000000   0.1298000
   0.0078500  -0.0509300   0.0000000  -0.0458300   0.0749500   0.0000000   0.0000000   0.0000000   0.1254200
   0.0725200   0.0044000   0.0000000   0.0051200  -0.0871100   0.0000000  -0.0000000  -0.0000000   0.1262500
  -0.0509600   0.0609200   0.0000000   0.0708600   0.0206900   0.0000000   0.0000000  -0.0000000   0.1294400
  -0.8937600   0.3309700   0.0000000   0.2648300  -1.0258200   0.0000000  -0.0000000  -0.0000000  -0.3350800
  -0.9397000  -0.4639900   0.0000000  -0.5217400  -0.7953300   0.0000000  -0.0000000  -0.0000000  -0.3174500
