15   
60   

1    
  0.0079069495157668   0.0000000000000000   0.0061221033440407
  -0.5211501800    0.0219764900   -0.0791958400
   0.0897913000   -0.0236551100    0.0360093700
   0.2025435000    0.0826396000    0.0364225300
   0.0453708000   -0.0070885800   -0.0047552700
   0.0141891300    0.0212618700    0.0036870300
  -0.0188790500   -0.0233614500   -0.0043757000
  -0.0143021400    0.0133755300   -0.0004798500
   0.0029385300   -0.0070613600   -0.0003881300
   0.1987207700   -0.0821896200    0.0231630100
  -0.0014479900    0.0223804300   -0.0016858600
   0.0072668200   -0.0024078600   -0.0036626000
   0.0021870500   -0.0003128900   -0.0041880400
  -0.0029106400   -0.0019830100    0.0006208100
   0.0012448500   -0.0058539200   -0.0002820300
  -0.0055627500   -0.0077201100   -0.0008894400

1    
 -0.0079069495157668   0.0000000000000000  -0.0061221033440407
   0.5162519800   -0.0333407500    0.0784642900
  -0.0916462900    0.0268813400   -0.0360017400
  -0.1954618900   -0.0791239300   -0.0377990800
  -0.0378012100    0.0144078700    0.0044787100
  -0.0041435300   -0.0161876900   -0.0036761000
   0.0195008400    0.0241340000    0.0041499100
   0.0020942300   -0.0129874600    0.0004523600
   0.0038655300   -0.0063093900    0.0003912300
  -0.2011757100    0.0961762900   -0.0207265500
   0.0045440500   -0.0190552800    0.0019086200
   0.0026112700    0.0028057600    0.0036674200
  -0.0048170700    0.0042948900    0.0041381600
  -0.0025605700   -0.0032921300   -0.0006081200
  -0.0088014100    0.0006090400    0.0002688800
  -0.0024602300    0.0009874500    0.0008920100

1    
  0.0000000000000000   0.0100000000000000   0.0000000000000000
   0.0316564900   -0.6429374600    0.0000000000
   0.0211970200    0.3140816000    0.0000000000
   0.0612141900    0.1522080000    0.0000000000
   0.0226650200   -0.0468099400    0.0000000000
   0.0271890700    0.0443937300    0.0000000000
  -0.0655707500    0.0243548000    0.0000000000
   0.0159870700    0.0303065500    0.0000000000
   0.0045839200   -0.0057357900    0.0000000000
  -0.1109409000    0.1182177700    0.0000000000
  -0.0010855700    0.0130748900    0.0000000000
   0.0010065100    0.0011846400    0.0000000000
  -0.0035858300    0.0013968000    0.0000000000
  -0.0018966400   -0.0018625300    0.0000000000
   0.0027657800   -0.0026876000    0.0000000000
  -0.0051853800    0.0008145500    0.0000000000

1    
  0.0000000000000000  -0.0100000000000000   0.0000000000000000
  -0.0383063500    0.6653357900    0.0000000000
  -0.0223243700   -0.3352294100    0.0000000000
  -0.0563518600   -0.1523212900    0.0000000000
  -0.0159050300    0.0542847100    0.0000000000
  -0.0174217600   -0.0396000100    0.0000000000
   0.0670736200   -0.0239663300    0.0000000000
  -0.0275901300   -0.0297694900    0.0000000000
   0.0022251000   -0.0076203100    0.0000000000
   0.1115699300   -0.1096988400    0.0000000000
   0.0041023800   -0.0100304700    0.0000000000
   0.0088138300   -0.0007633700    0.0000000000
   0.0009715100    0.0025821400    0.0000000000
  -0.0035866000   -0.0034314500    0.0000000000
  -0.0104594900   -0.0023330900    0.0000000000
  -0.0028107800   -0.0074385800    0.0000000000

2    
  0.0079069495157668   0.0000000000000000   0.0061221033440407
   0.0884405100    0.0167547900    0.0360717200
  -0.5266117100   -0.0182785700   -0.0757633100
  -0.0212512900    0.0173831200   -0.0046903200
   0.0146486300   -0.0154227500    0.0036128700
   0.0469134400    0.0188458600   -0.0046573400
   0.2167859200   -0.0889370400    0.0350997500
  -0.0022648200    0.0029044800   -0.0045952600
   0.0037791400   -0.0061767000    0.0002708300
  -0.0010106700   -0.0153731000   -0.0023828900
   0.1894368800    0.0908322200    0.0220265500
   0.0047203700   -0.0003940000    0.0006757800
  -0.0037811800    0.0039805700   -0.0023268800
  -0.0006045300   -0.0002636700   -0.0040701800
  -0.0043052700   -0.0034095000    0.0004873600
  -0.0048954300   -0.0024457000    0.0002413300

2    
 -0.0079069495157668   0.0000000000000000  -0.0061221033440407
  -0.0929998200   -0.0176728800   -0.0359398500
   0.5225873800    0.0319879000    0.0750926100
   0.0214549100   -0.0189806800    0.0044663100
  -0.0075558200    0.0226446900   -0.0036158300
  -0.0363275700   -0.0136744200    0.0043902800
  -0.2080903800    0.0843582000   -0.0366294600
  -0.0098542800   -0.0027581300    0.0045264600
   0.0030201800   -0.0071973100   -0.0002649900
   0.0052712900    0.0242008600    0.0026121500
  -0.1925028400   -0.0926523500   -0.0196370700
   0.0050863400    0.0007819900   -0.0006638700
   0.0012067700   -0.0000026200    0.0022925800
  -0.0048036600   -0.0050204200    0.0040873300
  -0.0033645300   -0.0017385000   -0.0004839300
  -0.0031279500   -0.0042763300   -0.0002327300

2    
  0.0000000000000000   0.0100000000000000   0.0000000000000000
  -0.0347974000    0.3363617400    0.0000000000
  -0.0319951000   -0.6514375900    0.0000000000
   0.0583355600    0.0315960000    0.0000000000
  -0.0213988200    0.0432773700    0.0000000000
  -0.0099013000   -0.0517037100    0.0000000000
  -0.0525027400    0.1587693400    0.0000000000
   0.0005541900   -0.0055480600    0.0000000000
   0.0035941100   -0.0068897600    0.0000000000
   0.0046708200    0.0134217500    0.0000000000
   0.1154465100    0.1250352000    0.0000000000
   0.0042453500    0.0008781200    0.0000000000
  -0.0274794100    0.0117502800    0.0000000000
   0.0011274500   -0.0016744700    0.0000000000
  -0.0062755500   -0.0026945100    0.0000000000
  -0.0036236800   -0.0011417100    0.0000000000

2    
  0.0000000000000000  -0.0100000000000000   0.0000000000000000
   0.0291417600   -0.3129466300    0.0000000000
   0.0315732200    0.6306928600    0.0000000000
  -0.0572840500   -0.0325624200    0.0000000000
   0.0281740400   -0.0357513000    0.0000000000
   0.0196449400    0.0564681000    0.0000000000
   0.0569265500   -0.1585649000    0.0000000000
  -0.0125932400    0.0055342100    0.0000000000
   0.0032043100   -0.0064877600    0.0000000000
  -0.0004512800   -0.0043574400    0.0000000000
  -0.1166951400   -0.1218840300    0.0000000000
   0.0055483600   -0.0004708600    0.0000000000
   0.0252198500   -0.0080849100    0.0000000000
  -0.0065791300   -0.0036218600    0.0000000000
  -0.0014602800   -0.0024157100    0.0000000000
  -0.0043699100   -0.0055473700    0.0000000000

3    
  0.0079069495157668   0.0000000000000000   0.0061221033440407
   0.1932044000    0.0444362600    0.0378450700
  -0.0221675400    0.0462728800   -0.0045524400
  -0.5166175400    0.0045757400   -0.0810019100
   0.2142644700   -0.0402276600    0.0354553400
  -0.0124212400   -0.0464857200   -0.0050888900
   0.0414220900    0.0019080800    0.0044264300
   0.0614024900   -0.0034506000    0.0439379100
   0.0080561200   -0.0039113900   -0.0026722900
   0.0165376900    0.0144022100   -0.0021218700
   0.0002275300    0.0005168100   -0.0044021300
   0.0190089100   -0.0092877700   -0.0018119900
  -0.0002750500    0.0020574700    0.0005484500
  -0.0041377400   -0.0017099700   -0.0042564300
   0.0033619900   -0.0350720700   -0.0108112400
  -0.0018665900    0.0259757300   -0.0054940000

3    
 -0.0079069495157668   0.0000000000000000  -0.0061221033440407
  -0.2048059400   -0.0485742600   -0.0363774900
   0.0205322400   -0.0451423900    0.0046057100
   0.5160543300    0.0047885400    0.0810427100
  -0.1993752500    0.0425351300   -0.0369846400
   0.0223989600    0.0512447700    0.0050130200
  -0.0406256900   -0.0008822600   -0.0044267600
  -0.0735419000    0.0028890200   -0.0439155600
  -0.0012508800   -0.0093758000    0.0026456600
  -0.0126645300   -0.0058070700    0.0023801500
   0.0028751600    0.0029265400    0.0043412800
  -0.0087704500    0.0096214600    0.0015632900
  -0.0023685100    0.0019643900   -0.0005485100
  -0.0013133200   -0.0035998500    0.0043177500
  -0.0109455500    0.0300393200    0.0110034000
  -0.0061986800   -0.0326275500    0.0053399700

3    
  0.0000000000000000   0.0100000000000000   0.0000000000000000
   0.0977106400    0.1521336500    0.0000000000
   0.0219892900    0.0325124500    0.0000000000
   0.0009549700   -0.5890366300    0.0000000000
  -0.0908081100    0.1485698900    0.0000000000
  -0.0212854200    0.0294503100    0.0000000000
   0.0021526800   -0.0005250400    0.0000000000
   0.0010922500    0.1855332700    0.0000000000
   0.0047875400   -0.0079411300    0.0000000000
  -0.0108564400   -0.0064460800    0.0000000000
   0.0008829600    0.0067222800    0.0000000000
   0.0196335300   -0.0097914900    0.0000000000
  -0.0012560100    0.0011942500    0.0000000000
  -0.0024610300    0.0024752800    0.0000000000
  -0.0331930000    0.0289828100    0.0000000000
   0.0106561700    0.0261661600    0.0000000000

3    
  0.0000000000000000  -0.0100000000000000   0.0000000000000000
  -0.1068052600   -0.1523863700    0.0000000000
  -0.0240049600   -0.0316468300    0.0000000000
   0.0012145600    0.5744020100    0.0000000000
   0.1013940100   -0.1417504600    0.0000000000
   0.0316224800   -0.0248243400    0.0000000000
  -0.0013594000    0.0011820200    0.0000000000
  -0.0138685100   -0.1717417800    0.0000000000
   0.0020885100   -0.0053542800    0.0000000000
   0.0152266400    0.0152009400    0.0000000000
   0.0021892500   -0.0033183900    0.0000000000
  -0.0098938300    0.0102131200    0.0000000000
  -0.0013886600    0.0028425500    0.0000000000
  -0.0029586100   -0.0078170900    0.0000000000
   0.0245500500   -0.0331398700    0.0000000000
  -0.0180062700   -0.0318612200    0.0000000000

4    
  0.0079069495157668   0.0000000000000000   0.0061221033440407
   0.0389846800    0.0157016500   -0.0044787200
   0.0102333300   -0.0188968000    0.0036087800
   0.2032156700   -0.0742823200    0.0369336500
  -0.5155141700   -0.0317463300   -0.0776667500
   0.0952850200    0.0203441400    0.0360302100
  -0.0224353500    0.0215506600   -0.0041705400
  -0.0102808600   -0.0127379800    0.0004693000
   0.0038061600   -0.0065411900    0.0001305300
   0.0041282000    0.0068346100   -0.0035381200
   0.0014510900    0.0010458800    0.0006178400
   0.2013496800    0.0974530800    0.0202024500
   0.0019113900    0.0044633700   -0.0041558300
  -0.0045708000   -0.0240543200   -0.0019017600
  -0.0064195900    0.0028058400   -0.0016717600
  -0.0011444500   -0.0019402900   -0.0004092900

4    
 -0.0079069495157668   0.0000000000000000  -0.0061221033440407
  -0.0441809800   -0.0148033900    0.0047557300
  -0.0119686600    0.0203052900   -0.0036198100
  -0.2104264500    0.0777559200   -0.0355053500
   0.5246006500    0.0267919000    0.0784255700
  -0.0853369000   -0.0134709200   -0.0361312500
   0.0234367400   -0.0207393300    0.0043835300
  -0.0017602100    0.0131196900   -0.0004275400
   0.0029839900   -0.0068465700   -0.0001288100
   0.0001071700    0.0018449200    0.0035287200
   0.0016698500    0.0024323100   -0.0006305600
  -0.1854283100   -0.0916969700   -0.0226038300
  -0.0045625300   -0.0004776500    0.0042089000
  -0.0008608300    0.0186113900    0.0016676700
  -0.0012930200   -0.0079727700    0.0016642600
  -0.0069805200   -0.0048538100    0.0004127800

4    
  0.0000000000000000   0.0100000000000000   0.0000000000000000
  -0.0157824500   -0.0499565500    0.0000000000
  -0.0247915600    0.0400680000    0.0000000000
  -0.0537980300    0.1447455100    0.0000000000
  -0.0341301500   -0.6326401700    0.0000000000
  -0.0276884500    0.3117555500    0.0000000000
   0.0635812700    0.0295261200    0.0000000000
  -0.0326953000    0.0190011900    0.0000000000
   0.0026737600   -0.0074395600    0.0000000000
   0.0059873100    0.0059555700    0.0000000000
   0.0007041200    0.0024448000    0.0000000000
   0.1248006700    0.1248903600    0.0000000000
   0.0011600600    0.0017054800    0.0000000000
  -0.0007374500    0.0073310200    0.0000000000
  -0.0031690400    0.0018841500    0.0000000000
  -0.0061147600    0.0007285200    0.0000000000

4    
  0.0000000000000000  -0.0100000000000000   0.0000000000000000
   0.0114011500    0.0511383300    0.0000000000
   0.0233493500   -0.0389630300    0.0000000000
   0.0507919900   -0.1455808600    0.0000000000
   0.0399112500    0.6614740800    0.0000000000
   0.0385667900   -0.3290144700    0.0000000000
  -0.0635023600   -0.0292033400    0.0000000000
   0.0200876800   -0.0185555600    0.0000000000
   0.0041205300   -0.0059404900    0.0000000000
  -0.0017052400    0.0027476200    0.0000000000
   0.0024299500    0.0010149500    0.0000000000
  -0.1105310000   -0.1241699300    0.0000000000
  -0.0038291800    0.0022723000    0.0000000000
  -0.0046212600   -0.0129949600    0.0000000000
  -0.0045329100   -0.0069280100    0.0000000000
  -0.0019367500   -0.0072966300    0.0000000000

5    
  0.0079069495157668   0.0000000000000000   0.0061221033440407
   0.0068106200    0.0180796000    0.0036823700
   0.0404864100   -0.0109609800   -0.0043878700
  -0.0171098900   -0.0216991300   -0.0049317200
   0.0938866700   -0.0234607100    0.0360631100
  -0.5234575800    0.0310663700   -0.0748314300
   0.2027341700    0.0895458200    0.0366597400
  -0.0016652900   -0.0018661000   -0.0048314700
   0.0031112200   -0.0068104600   -0.0000912800
   0.0019194700    0.0048904900    0.0006823800
   0.0039021200   -0.0005736000   -0.0041110000
   0.0012011800    0.0200249400   -0.0026168700
  -0.0048105500   -0.0006375500   -0.0022951100
   0.2017763600   -0.0911419900    0.0194556900
  -0.0045427800   -0.0035943400    0.0010493200
  -0.0042421300   -0.0028623600    0.0005041400

5    
 -0.0079069495157668   0.0000000000000000  -0.0061221033440407
  -0.0115206500   -0.0171949000   -0.0036807400
  -0.0427535400    0.0124036400    0.0046593600
   0.0177106200    0.0201332000    0.0051681900
  -0.0867317100    0.0289077400   -0.0360984200
   0.5337201200   -0.0136516900    0.0755242500
  -0.2088925300   -0.0942489400   -0.0351730900
  -0.0104134800    0.0020241700    0.0049046600
   0.0036862500   -0.0065664200    0.0000926000
   0.0023788500    0.0037800400   -0.0006942200
  -0.0008440800    0.0040378600    0.0040975600
   0.0086282500   -0.0194971700    0.0023943700
   0.0021126600    0.0046289300    0.0023150900
  -0.2001200400    0.0806715300   -0.0219267100
  -0.0031537400   -0.0015562900   -0.0010724900
  -0.0038069500   -0.0038717100   -0.0005104100

5    
  0.0000000000000000   0.0100000000000000   0.0000000000000000
   0.0214791500    0.0425790200    0.0000000000
   0.0198411000   -0.0535236800    0.0000000000
  -0.0619215200    0.0266192800    0.0000000000
   0.0247040800    0.3352097400    0.0000000000
   0.0343709200   -0.6430030400    0.0000000000
   0.0593686300    0.1686264500    0.0000000000
  -0.0103135800   -0.0061411000    0.0000000000
   0.0032317800   -0.0068059200    0.0000000000
   0.0027601700    0.0050632400    0.0000000000
  -0.0022098900    0.0022871000    0.0000000000
   0.0018148200    0.0107758800    0.0000000000
   0.0241168700    0.0130527600    0.0000000000
  -0.1097724700    0.1083006000    0.0000000000
  -0.0051431200    0.0004561200    0.0000000000
  -0.0023269400   -0.0034964400    0.0000000000

5    
  0.0000000000000000  -0.0100000000000000   0.0000000000000000
  -0.0258792600   -0.0414150400    0.0000000000
  -0.0212823700    0.0546512500    0.0000000000
   0.0616799700   -0.0276571100    0.0000000000
  -0.0180567400   -0.3055608600    0.0000000000
  -0.0221788600    0.6261810500    0.0000000000
  -0.0632111000   -0.1691473400    0.0000000000
  -0.0017787500    0.0061272700    0.0000000000
   0.0035620700   -0.0065753900    0.0000000000
   0.0015495400    0.0036267900    0.0000000000
   0.0053132500    0.0011656100    0.0000000000
   0.0080689800   -0.0099595400    0.0000000000
  -0.0271381200   -0.0094326900    0.0000000000
   0.1076404600   -0.1132382800    0.0000000000
  -0.0026055200   -0.0055525900    0.0000000000
  -0.0056835500   -0.0032131400    0.0000000000

6    
  0.0079069495157668   0.0000000000000000   0.0061221033440407
  -0.0214987400   -0.0518142100   -0.0042350800
   0.2075078500   -0.0400205000    0.0366578100
   0.0412210600    0.0004794400    0.0044273200
  -0.0194399600    0.0540138700   -0.0042998300
   0.2144444400    0.0536843100    0.0351437900
  -0.4861761700   -0.0054644900   -0.0775785300
  -0.0025792400   -0.0000584200    0.0007949600
   0.0035122500   -0.0067477100   -0.0000335400
   0.0009940300    0.0050824200   -0.0044065600
   0.0150616200   -0.0088921400   -0.0016653500
   0.0037992600   -0.0007875200   -0.0043116700
   0.0405593000   -0.0026768700    0.0215548500
   0.0111831700    0.0093158900   -0.0019143400
  -0.0042638100   -0.0035958200   -0.0000813800
  -0.0043250700   -0.0025182600   -0.0000524700

6    
 -0.0079069495157668   0.0000000000000000  -0.0061221033440407
   0.0168846500    0.0530613500    0.0042927600
  -0.2173709000    0.0465789400   -0.0350728100
  -0.0408238000   -0.0023005100   -0.0044262700
   0.0264289200   -0.0464707900    0.0042561400
  -0.1971907700   -0.0432854000   -0.0366904200
   0.4880608100   -0.0070415300    0.0776106100
  -0.0095082800    0.0001810000   -0.0007949500
   0.0032846800   -0.0066283700    0.0000333500
   0.0032905400    0.0036193900    0.0043334400
  -0.0123589300    0.0124407800    0.0019229200
   0.0060207100    0.0012066200    0.0043844700
  -0.0433466100    0.0089082000   -0.0216327600
  -0.0162338700   -0.0144928600    0.0016497800
  -0.0034184300   -0.0015604000    0.0000838800
  -0.0037187200   -0.0042164400    0.0000498700

6    
  0.0000000000000000   0.0100000000000000   0.0000000000000000
  -0.0325007800    0.0248620600    0.0000000000
  -0.1121783200    0.1593214600    0.0000000000
   0.0019754100   -0.0015790700    0.0000000000
   0.0303894200    0.0332904900    0.0000000000
   0.1235041200    0.1717354200    0.0000000000
   0.0005341200   -0.6724907400    0.0000000000
  -0.0066025700   -0.0001966200    0.0000000000
   0.0032072400   -0.0067872000    0.0000000000
   0.0027450600    0.0093164900    0.0000000000
   0.0171072100   -0.0083697100    0.0000000000
   0.0040823000    0.0052180100    0.0000000000
  -0.0083492200    0.3037630800    0.0000000000
  -0.0167956000   -0.0127806000    0.0000000000
  -0.0031787600   -0.0023055800    0.0000000000
  -0.0039396300   -0.0029974900    0.0000000000

6    
  0.0000000000000000  -0.0100000000000000   0.0000000000000000
   0.0275766100   -0.0234577000    0.0000000000
   0.1069054500   -0.1580075500    0.0000000000
  -0.0015510100    0.0001263600    0.0000000000
  -0.0231084500   -0.0254376700    0.0000000000
  -0.1088831400   -0.1660393200    0.0000000000
  -0.0014628100    0.6917077500    0.0000000000
  -0.0054766200    0.0002712300    0.0000000000
   0.0035915400   -0.0065898700    0.0000000000
   0.0015040400   -0.0005875600    0.0000000000
  -0.0139479600    0.0118801400    0.0000000000
   0.0057702800   -0.0047660700    0.0000000000
   0.0064151700   -0.3200534400    0.0000000000
   0.0112779500    0.0075354600    0.0000000000
  -0.0045164700   -0.0028495200    0.0000000000
  -0.0040945800   -0.0037322300    0.0000000000

7    
  0.0079069495157668   0.0000000000000000   0.0061221033440407
  -0.0105133800    0.0176782700   -0.0003992500
   0.0030059600    0.0058381400   -0.0045503500
   0.0676360500    0.0055154600    0.0439126700
  -0.0007531300   -0.0172493300    0.0003593300
   0.0093156200   -0.0008810200   -0.0048680200
   0.0038600100    0.0000104400    0.0007943700
  -0.5915474300    0.1205089500   -0.1142896200
  -0.0029776200   -0.0025175000   -0.0023165600
   0.0042450100    0.0061787000    0.0022195000
   0.0014928900    0.0029896600   -0.0003090000
   0.0066145500   -0.0006343500    0.0022389000
  -0.0010435400    0.0019971200    0.0008426600
  -0.0027530700   -0.0038573400   -0.0003446400
   0.3674833500   -0.1856805000    0.0432555600
   0.1459347200    0.0501033000    0.0334544500

7    
 -0.0079069495157668   0.0000000000000000  -0.0061221033440407
   0.0058832900   -0.0167683400    0.0005315200
  -0.0045890600   -0.0045614300    0.0045707600
  -0.0673163100   -0.0063350500   -0.0439365500
   0.0077745200    0.0244867600   -0.0005388100
   0.0005667200    0.0058621700    0.0048678800
  -0.0030693300    0.0008982200   -0.0007954900
   0.5859658400   -0.1380043900    0.1118692600
   0.0098172100   -0.0106094800    0.0022427400
   0.0000177700    0.0024413100   -0.0022082900
   0.0016161200    0.0004753500    0.0002976600
   0.0032091500    0.0010336300   -0.0022528900
  -0.0016006700    0.0020257800   -0.0008451900
  -0.0027082600   -0.0014271600    0.0003604800
  -0.3907374900    0.1924254000   -0.0397032500
  -0.1448294900   -0.0519427700   -0.0344598300

7    
  0.0000000000000000   0.0100000000000000   0.0000000000000000
   0.0141921600    0.0301402000    0.0000000000
   0.0027108400   -0.0048198700    0.0000000000
  -0.0031267200    0.1710467900    0.0000000000
  -0.0127024900    0.0220579200    0.0000000000
   0.0025655000   -0.0035740700    0.0000000000
   0.0002529200    0.0002114700    0.0000000000
   0.1601198300   -0.6406882800    0.0000000000
   0.0528453400    0.0285630500    0.0000000000
  -0.0003719100    0.0035361400    0.0000000000
   0.0011115200    0.0011243500    0.0000000000
   0.0072712800   -0.0013703700    0.0000000000
  -0.0013606900    0.0020122000    0.0000000000
  -0.0021819800   -0.0034315000    0.0000000000
  -0.2521900200    0.2563895500    0.0000000000
   0.0308644300    0.1388024100    0.0000000000

7    
  0.0000000000000000  -0.0100000000000000   0.0000000000000000
  -0.0191533200   -0.0299310700    0.0000000000
  -0.0044504500    0.0062656200    0.0000000000
   0.0049145400   -0.1862267900    0.0000000000
   0.0200088400   -0.0154966600    0.0000000000
   0.0074841700    0.0086924600    0.0000000000
   0.0005614300    0.0006766900    0.0000000000
  -0.1667857600    0.6506227800    0.0000000000
  -0.0453872900   -0.0409663000    0.0000000000
   0.0046360300    0.0051831800    0.0000000000
   0.0019927500    0.0023290600    0.0000000000
   0.0025394600    0.0018191200    0.0000000000
  -0.0012843800    0.0020028400    0.0000000000
  -0.0032743100   -0.0018779600    0.0000000000
   0.2336443500   -0.2585451900    0.0000000000
  -0.0354460600   -0.1445477800    0.0000000000

8    
  0.0079069495157668   0.0000000000000000   0.0061221033440407
  -0.0027377300    0.0014301600   -0.0003933900
  -0.0004170400    0.0008104100    0.0002690400
   0.0048514300    0.0002042400   -0.0026640900
   0.0038711700    0.0030962900    0.0001311900
   0.0046623400    0.0023635600   -0.0000897900
   0.0005109100    0.0003192200   -0.0000336700
  -0.0124007800    0.0388410400   -0.0021055300
  -0.0401395200    0.0440306500   -0.0067726600
   0.0022165800    0.0044375700   -0.0001050900
   0.0015439800    0.0018317300    0.0000521400
   0.0044368300    0.0003043500    0.0001339600
  -0.0013448600    0.0019830100    0.0000127300
  -0.0027214400   -0.0026669500   -0.0000090000
  -0.0039247200   -0.0085406400    0.0033877900
   0.0415928600   -0.0884446300    0.0081863600

8    
 -0.0079069495157668   0.0000000000000000  -0.0061221033440407
  -0.0018106400   -0.0004363700    0.0003859900
  -0.0011752300    0.0005024200   -0.0002667500
  -0.0044542600   -0.0019289300    0.0026539000
   0.0030490000    0.0042387900   -0.0001285300
   0.0052372900    0.0026258600    0.0000939900
   0.0002840000    0.0006235600    0.0000331100
   0.0003972500   -0.0388246900    0.0024514300
   0.0484526200   -0.0602495900    0.0076364700
   0.0020807900    0.0042398900    0.0001038800
   0.0015738700    0.0016339800   -0.0000511600
   0.0053651800    0.0001004400   -0.0001391300
  -0.0012988600    0.0020371400   -0.0000138700
  -0.0027482200   -0.0026189900    0.0000089700
  -0.0038602900    0.0034128300   -0.0034488400
  -0.0510925000    0.0846436600   -0.0093194700

8    
  0.0000000000000000   0.0100000000000000   0.0000000000000000
  -0.0027566200    0.0014477200    0.0000000000
  -0.0001505800    0.0004577100    0.0000000000
   0.0036671200   -0.0021759300    0.0000000000
   0.0036614200    0.0029232600    0.0000000000
   0.0047969300    0.0023806100    0.0000000000
   0.0003237100    0.0003700400    0.0000000000
  -0.0009415200    0.0346613400    0.0000000000
   0.0657563800   -0.4481382100    0.0000000000
   0.0022908000    0.0044315400    0.0000000000
   0.0015167200    0.0018266200    0.0000000000
   0.0048734500    0.0001346900    0.0000000000
  -0.0013265800    0.0019989600    0.0000000000
  -0.0027179900   -0.0026377500    0.0000000000
  -0.0116224000   -0.0058445200    0.0000000000
  -0.0673708500    0.4081639200    0.0000000000

8    
  0.0000000000000000  -0.0100000000000000   0.0000000000000000
  -0.0018087000   -0.0004327500    0.0000000000
  -0.0014421900    0.0008571300    0.0000000000
  -0.0032421900    0.0004117300    0.0000000000
   0.0032758200    0.0044265400    0.0000000000
   0.0051086400    0.0026090100    0.0000000000
   0.0004732800    0.0005640600    0.0000000000
  -0.0111773300   -0.0348640400    0.0000000000
  -0.0663974000    0.4666307700    0.0000000000
   0.0020059200    0.0042465300    0.0000000000
   0.0015999800    0.0016422700    0.0000000000
   0.0049356700    0.0002663400    0.0000000000
  -0.0013165900    0.0020227200    0.0000000000
  -0.0027505300   -0.0026463200    0.0000000000
   0.0040381100    0.0007355700    0.0000000000
   0.0666975200   -0.4464695600    0.0000000000

9    
  0.0079069495157668   0.0000000000000000   0.0061221033440407
   0.2007611900   -0.0898882800    0.0209738800
  -0.0040299900    0.0027245200   -0.0025048600
   0.0149130000   -0.0111933600   -0.0023289600
   0.0054878200    0.0067127400   -0.0035567500
   0.0047262900    0.0029760800    0.0006923200
  -0.0007485500    0.0009771100   -0.0044005800
  -0.0039522900   -0.0019290500    0.0022306200
   0.0034643600   -0.0065770200   -0.0001055000
  -0.2128441600    0.1016958400   -0.0138683300
   0.0010333000    0.0014874400    0.0024411900
   0.0056111400   -0.0004003700   -0.0003303500
  -0.0014120900    0.0022211200    0.0000495400
  -0.0027265600   -0.0027170300    0.0006329700
  -0.0056839200   -0.0027923100    0.0001193600
  -0.0045995300   -0.0032974400   -0.0000445500

9    
 -0.0079069495157668   0.0000000000000000  -0.0061221033440407
  -0.1991400100    0.0861069300   -0.0229263700
   0.0022544100   -0.0013252000    0.0024898300
  -0.0142893200    0.0094319900    0.0021722800
   0.0014629300    0.0006299700    0.0035106300
   0.0051847000    0.0020204000   -0.0006844200
   0.0015473600   -0.0000045200    0.0043402600
  -0.0081785200    0.0020291000   -0.0021977000
   0.0033284300   -0.0068027400    0.0001035000
   0.2109134900   -0.0883108700    0.0160089300
   0.0020952800    0.0019614100   -0.0023992800
   0.0042034200    0.0008030100    0.0003335700
  -0.0012419800    0.0018030300   -0.0000536200
  -0.0027432600   -0.0025681500   -0.0006256800
  -0.0019778600   -0.0023501800   -0.0001153400
  -0.0034190800   -0.0034241700    0.0000434000

9    
  0.0000000000000000   0.0100000000000000   0.0000000000000000
  -0.1133737600    0.1145180600    0.0000000000
  -0.0256218400    0.0094124600    0.0000000000
   0.0128798000   -0.0116429500    0.0000000000
   0.0066083800    0.0052707700    0.0000000000
   0.0056538100    0.0032030900    0.0000000000
   0.0013414700    0.0053878800    0.0000000000
  -0.0036314300   -0.0007853600    0.0000000000
   0.0035270600   -0.0065949600    0.0000000000
   0.1204846700   -0.1141816200    0.0000000000
   0.0017975200    0.0007443200    0.0000000000
   0.0058180700   -0.0003532800    0.0000000000
  -0.0025222800    0.0025029500    0.0000000000
  -0.0028079700   -0.0026803400    0.0000000000
  -0.0046103000   -0.0010634000    0.0000000000
  -0.0055432000   -0.0037376400    0.0000000000

9    
  0.0000000000000000  -0.0100000000000000   0.0000000000000000
   0.1121250300   -0.1134139800    0.0000000000
   0.0244347600   -0.0083633000    0.0000000000
  -0.0126797900    0.0099976000    0.0000000000
   0.0002936600    0.0020579600    0.0000000000
   0.0042446600    0.0017708800    0.0000000000
  -0.0005071200   -0.0045109100    0.0000000000
  -0.0083587700    0.0008616200    0.0000000000
   0.0032763500   -0.0067798400    0.0000000000
  -0.1197440800    0.1230165200    0.0000000000
   0.0013150500    0.0027194400    0.0000000000
   0.0039881500    0.0007576600    0.0000000000
  -0.0001091000    0.0015045000    0.0000000000
  -0.0026595300   -0.0026044700    0.0000000000
  -0.0030915100   -0.0040430800    0.0000000000
  -0.0025277700   -0.0029706000    0.0000000000

10   
  0.0079069495157668   0.0000000000000000   0.0061221033440407
  -0.0053596000   -0.0016039000   -0.0017992400
   0.1929846700    0.0948615800    0.0198846000
  -0.0011157900   -0.0013913400   -0.0044021900
   0.0033561900    0.0029874000    0.0006279000
   0.0073422200   -0.0004774000   -0.0041303100
   0.0142096500    0.0127905000   -0.0018687200
  -0.0061184500   -0.0003038300   -0.0003079700
   0.0033823300   -0.0067225800    0.0000521800
   0.0016225300    0.0045394900    0.0024407400
  -0.2033335500   -0.0990035100   -0.0133583600
   0.0049058200    0.0002589900    0.0006783900
  -0.0020070600    0.0018314400    0.0022181200
  -0.0019993400   -0.0020058400   -0.0001183200
  -0.0038738200   -0.0024315400   -0.0000229000
  -0.0039958000   -0.0033294600    0.0001060700

10   
 -0.0079069495157668   0.0000000000000000  -0.0061221033440407
   0.0006314800    0.0025002100    0.0017947900
  -0.1889587300   -0.0887367000   -0.0217890100
   0.0015348600   -0.0003570700    0.0043417600
   0.0035746400    0.0043514600   -0.0006210000
   0.0025968900    0.0054710800    0.0040790200
  -0.0132128700   -0.0117723000    0.0017185600
  -0.0059957100    0.0003907500    0.0002986000
   0.0034126800   -0.0066565400   -0.0000512600
   0.0026841600    0.0041581500   -0.0023998300
   0.2007836900    0.0977131600    0.0154393100
   0.0049023900    0.0001394600   -0.0006711400
  -0.0006470900    0.0021835000   -0.0021822600
  -0.0034621100   -0.0032822900    0.0001239900
  -0.0038094800   -0.0027099800    0.0000235000