mesh: [     1,     1,     1 ]
nqpoint: 1      
reciprocal_lattice:
- [   0.05161791,   0.00000000,   0.00000000 ] # a*
- [   0.00000000,   0.04562625,   0.00000000 ] # b*
- [   0.00000000,   0.00000000,   0.06666667 ] # c*
natom:   15     
lattice:
- [    19.3731200000000001,     0.0000000000000000,     0.0000000000000000 ] # a
- [     0.0000000000000000,    21.9172100000000007,     0.0000000000000000 ] # b
- [     0.0000000000000000,     0.0000000000000000,    15.0000000000000000 ] # c
atoms:
- symbol: C  # 1
  position: [  0.4365167455901888,  0.4853689609955276,  0.5000000000000000 ]
  mass: 12.010700
- symbol: C  # 2
  position: [  0.4386141899578123,  0.4218449724390441,  0.5000000000000000 ]
  mass: 12.010700
- symbol: C  # 3
  position: [  0.4981317295283716,  0.5190493211558228,  0.5000000000000000 ]
  mass: 12.010700
- symbol: C  # 4
  position: [  0.5618237566270443,  0.4885247527529063,  0.5000000000000000 ]
  mass: 12.010700
- symbol: C  # 5
  position: [  0.5636287816205072,  0.4249193225177887,  0.5000000000000000 ]
  mass: 12.010700
- symbol: C  # 6
  position: [  0.5021535520845211,  0.3915401143249403,  0.5000000000000000 ]
  mass: 12.010700
- symbol: C  # 7
  position: [  0.4930894860234862,  0.5867052997859133,  0.5000000000000000 ]
  mass: 12.010700
- symbol: H  # 8
  position: [  0.5462609370630069,  0.6586977175233142,  0.5000000000000000 ]
  mass: 1.007940
- symbol: H  # 9
  position: [  0.3876229557720433,  0.5099693873733330,  0.5000000000000000 ]
  mass: 1.007940
- symbol: H  # 10
  position: [  0.3906582500751829,  0.3957979493319526,  0.5000000000000000 ]
  mass: 1.007940
- symbol: H  # 11
  position: [  0.6095097343492071,  0.5148109208527955,  0.5000000000000000 ]
  mass: 1.007940
- symbol: H  # 12
  position: [  0.5037556433685196,  0.3417888375452018,  0.5000000000000000 ]
  mass: 1.007940
- symbol: H  # 13
  position: [  0.6131707863073703,  0.4013041869256100,  0.5000000000000000 ]
  mass: 1.007940
- symbol: O  # 14
  position: [  0.4391471008652092,  0.6157238316150069,  0.5000000000000000 ]
  mass: 15.999400
- symbol: O  # 15
  position: [  0.5561700631277546,  0.6148889553051935,  0.5000000000000000 ]
  mass: 15.999400
supercell_matrix:
- [    1,    0,    0 ]
- [    0,    1,    0 ]
- [    0,    0,    1 ]

phonon:
- q-position: [    0.0000000,    0.0000000,    0.0000000 ]
  weight: 1    
  band:
  - # 1
    frequency:    -0.3814778239
    eigenvector:
    - # atom 1
      - [  0.00000000000193,  0.00000000000000 ]
      - [ -0.00000000000100,  0.00000000000000 ]
      - [ -0.34455628549729,  0.00000000000000 ]
    - # atom 2
      - [  0.00000000000214,  0.00000000000000 ]
      - [ -0.00000000000099,  0.00000000000000 ]
      - [ -0.29564900989820,  0.00000000000000 ]
    - # atom 3
      - [  0.00000000000182,  0.00000000000000 ]
      - [ -0.00000000000082,  0.00000000000000 ]
      - [ -0.01042607473171,  0.00000000000000 ]
    - # atom 4
      - [  0.00000000000192,  0.00000000000000 ]
      - [ -0.00000000000064,  0.00000000000000 ]
      - [  0.37338106199698,  0.00000000000000 ]
    - # atom 5
      - [  0.00000000000212,  0.00000000000000 ]
      - [ -0.00000000000063,  0.00000000000000 ]
      - [  0.41984870456010,  0.00000000000000 ]
    - # atom 6
      - [  0.00000000000223,  0.00000000000000 ]
      - [ -0.00000000000081,  0.00000000000000 ]
      - [  0.08601781351019,  0.00000000000000 ]
    - # atom 7
      - [  0.00000000000159,  0.00000000000000 ]
      - [ -0.00000000000084,  0.00000000000000 ]
      - [ -0.07993379096419,  0.00000000000000 ]
    - # atom 8
      - [  0.00000000000039,  0.00000000000000 ]
      - [ -0.00000000000020,  0.00000000000000 ]
      - [  0.05436355037976,  0.00000000000000 ]
    - # atom 9
      - [  0.00000000000054,  0.00000000000000 ]
      - [ -0.00000000000033,  0.00000000000000 ]
      - [ -0.18534256389105,  0.00000000000000 ]
    - # atom 10
      - [  0.00000000000064,  0.00000000000000 ]
      - [ -0.00000000000033,  0.00000000000000 ]
      - [ -0.16098631357562,  0.00000000000000 ]
    - # atom 11
      - [  0.00000000000053,  0.00000000000000 ]
      - [ -0.00000000000014,  0.00000000000000 ]
      - [  0.18340255318596,  0.00000000000000 ]
    - # atom 12
      - [  0.00000000000069,  0.00000000000000 ]
      - [ -0.00000000000023,  0.00000000000000 ]
      - [  0.03575199726650,  0.00000000000000 ]
    - # atom 13
      - [  0.00000000000064,  0.00000000000000 ]
      - [ -0.00000000000014,  0.00000000000000 ]
      - [  0.20797115542310,  0.00000000000000 ]
    - # atom 14
      - [  0.00000000000173,  0.00000000000000 ]
      - [ -0.00000000000115,  0.00000000000000 ]
      - [ -0.47485498364285,  0.00000000000000 ]
    - # atom 15
      - [  0.00000000000173,  0.00000000000000 ]
      - [ -0.00000000000075,  0.00000000000000 ]
      - [  0.31210781008817,  0.00000000000000 ]
  - # 2
    frequency:    -0.0628116636
    eigenvector:
    - # atom 1
      - [ -0.08262404378390,  0.00000000000000 ]
      - [  0.18013440087701,  0.00000000000000 ]
      - [  0.00000000016992,  0.00000000000000 ]
    - # atom 2
      - [ -0.28917154006285,  0.00000000000000 ]
      - [  0.17410756923556,  0.00000000000000 ]
      - [  0.00000000022814,  0.00000000000000 ]
    - # atom 3
      - [  0.02684107198401,  0.00000000000000 ]
      - [  0.00310139484700,  0.00000000000000 ]
      - [  0.00000000012351,  0.00000000000000 ]
    - # atom 4
      - [ -0.07238840503532,  0.00000000000000 ]
      - [ -0.17998322829917,  0.00000000000000 ]
      - [  0.00000000013589,  0.00000000000000 ]
    - # atom 5
      - [ -0.27920322024671,  0.00000000000000 ]
      - [ -0.18518210034907,  0.00000000000000 ]
      - [  0.00000000019425,  0.00000000000000 ]
    - # atom 6
      - [ -0.38771823956788,  0.00000000000000 ]
      - [ -0.00851451276956,  0.00000000000000 ]
      - [  0.00000000024043,  0.00000000000000 ]
    - # atom 7
      - [  0.24648776428410,  0.00000000000000 ]
      - [  0.01760119072601,  0.00000000000000 ]
      - [  0.00000000006243,  0.00000000000000 ]
    - # atom 8
      - [  0.13900105628733,  0.00000000000000 ]
      - [ -0.03909764023063,  0.00000000000000 ]
      - [ -0.00000000000478,  0.00000000000000 ]
    - # atom 9
      - [ -0.00075083052847,  0.00000000000000 ]
      - [  0.09290204495737,  0.00000000000000 ]
      - [  0.00000000004613,  0.00000000000000 ]
    - # atom 10
      - [ -0.10830383131403,  0.00000000000000 ]
      - [  0.09036733838845,  0.00000000000000 ]
      - [  0.00000000007652,  0.00000000000000 ]
    - # atom 11
      - [  0.00381243066668,  0.00000000000000 ]
      - [ -0.09188242799280,  0.00000000000000 ]
      - [  0.00000000002888,  0.00000000000000 ]
    - # atom 12
      - [ -0.15915114389446,  0.00000000000000 ]
      - [ -0.00379751399950,  0.00000000000000 ]
      - [  0.00000000008287,  0.00000000000000 ]
    - # atom 13
      - [ -0.10313269724355,  0.00000000000000 ]
      - [ -0.09489589021343,  0.00000000000000 ]
      - [  0.00000000005905,  0.00000000000000 ]
    - # atom 14
      - [  0.39326866254963,  0.00000000000000 ]
      - [  0.19906701341234,  0.00000000000000 ]
      - [  0.00000000005631,  0.00000000000000 ]
    - # atom 15
      - [  0.38996286494457,  0.00000000000000 ]
      - [ -0.18851559154611,  0.00000000000000 ]
      - [  0.00000000002446,  0.00000000000000 ]
  - # 3
    frequency:    -0.0000011918
    eigenvector:
    - # atom 1
      - [ -0.31360890002576,  0.00000000000000 ]
      - [  0.00000000001593,  0.00000000000000 ]
      - [ -0.00000000004688,  0.00000000000000 ]
    - # atom 2
      - [ -0.31360890003168,  0.00000000000000 ]
      - [  0.00000000001576,  0.00000000000000 ]
      - [ -0.00000000006192,  0.00000000000000 ]
    - # atom 3
      - [ -0.31360890002262,  0.00000000000000 ]
      - [  0.00000000001086,  0.00000000000000 ]
      - [ -0.00000000003260,  0.00000000000000 ]
    - # atom 4
      - [ -0.31360890002547,  0.00000000000000 ]
      - [  0.00000000000560,  0.00000000000000 ]
      - [ -0.00000000003351,  0.00000000000000 ]
    - # atom 5
      - [ -0.31360890003140,  0.00000000000000 ]
      - [  0.00000000000545,  0.00000000000000 ]
      - [ -0.00000000004861,  0.00000000000000 ]
    - # atom 6
      - [ -0.31360890003451,  0.00000000000000 ]
      - [  0.00000000001052,  0.00000000000000 ]
      - [ -0.00000000006283,  0.00000000000000 ]
    - # atom 7
      - [ -0.31360890001630,  0.00000000000000 ]
      - [  0.00000000001127,  0.00000000000000 ]
      - [ -0.00000000001694,  0.00000000000000 ]
    - # atom 8
      - [ -0.09084929462698,  0.00000000000000 ]
      - [  0.00000000000199,  0.00000000000000 ]
      - [  0.00000000000160,  0.00000000000000 ]
    - # atom 9
      - [ -0.09084929463100,  0.00000000000000 ]
      - [  0.00000000000578,  0.00000000000000 ]
      - [ -0.00000000001329,  0.00000000000000 ]
    - # atom 10
      - [ -0.09084929463409,  0.00000000000000 ]
      - [  0.00000000000571,  0.00000000000000 ]
      - [ -0.00000000002115,  0.00000000000000 ]
    - # atom 11
      - [ -0.09084929463087,  0.00000000000000 ]
      - [  0.00000000000048,  0.00000000000000 ]
      - [ -0.00000000000649,  0.00000000000000 ]
    - # atom 12
      - [ -0.09084929463554,  0.00000000000000 ]
      - [  0.00000000000301,  0.00000000000000 ]
      - [ -0.00000000002162,  0.00000000000000 ]
    - # atom 13
      - [ -0.09084929463394,  0.00000000000000 ]
      - [  0.00000000000040,  0.00000000000000 ]
      - [ -0.00000000001429,  0.00000000000000 ]
    - # atom 14
      - [ -0.36195623959040,  0.00000000000000 ]
      - [  0.00000000001816,  0.00000000000000 ]
      - [ -0.00000000001778,  0.00000000000000 ]
    - # atom 15
      - [ -0.36195623959049,  0.00000000000000 ]
      - [  0.00000000000700,  0.00000000000000 ]
      - [ -0.00000000000451,  0.00000000000000 ]
  - # 4
    frequency:    -0.0000011335
    eigenvector:
    - # atom 1
      - [  0.00000000000000,  0.00000000000000 ]
      - [  0.31180421275315,  0.00000000000000 ]
      - [  0.03359576004142,  0.00000000000000 ]
    - # atom 2
      - [ -0.00000000001754,  0.00000000000000 ]
      - [  0.31180421275264,  0.00000000000000 ]
      - [  0.03359576004212,  0.00000000000000 ]
    - # atom 3
      - [  0.00000000000929,  0.00000000000000 ]
      - [  0.31180421273812,  0.00000000000000 ]
      - [  0.03359576004192,  0.00000000000000 ]
    - # atom 4
      - [  0.00000000000087,  0.00000000000000 ]
      - [  0.31180421272258,  0.00000000000000 ]
      - [  0.03359576004313,  0.00000000000000 ]
    - # atom 5
      - [ -0.00000000001669,  0.00000000000000 ]
      - [  0.31180421272213,  0.00000000000000 ]
      - [  0.03359576004382,  0.00000000000000 ]
    - # atom 6
      - [ -0.00000000002591,  0.00000000000000 ]
      - [  0.31180421273713,  0.00000000000000 ]
      - [  0.03359576004331,  0.00000000000000 ]
    - # atom 7
      - [  0.00000000002793,  0.00000000000000 ]
      - [  0.31180421273935,  0.00000000000000 ]
      - [  0.03359576004111,  0.00000000000000 ]
    - # atom 8
      - [  0.00000000001383,  0.00000000000000 ]
      - [  0.09032649515702,  0.00000000000000 ]
      - [  0.00973234848277,  0.00000000000000 ]
    - # atom 9
      - [  0.00000000000197,  0.00000000000000 ]
      - [  0.09032649516823,  0.00000000000000 ]
      - [  0.00973234848259,  0.00000000000000 ]
    - # atom 10
      - [ -0.00000000000716,  0.00000000000000 ]
      - [  0.09032649516801,  0.00000000000000 ]
      - [  0.00973234848295,  0.00000000000000 ]
    - # atom 11
      - [  0.00000000000236,  0.00000000000000 ]
      - [  0.09032649515254,  0.00000000000000 ]
      - [  0.00973234848347,  0.00000000000000 ]
    - # atom 12
      - [ -0.00000000001148,  0.00000000000000 ]
      - [  0.09032649516002,  0.00000000000000 ]
      - [  0.00973234848357,  0.00000000000000 ]
    - # atom 13
      - [ -0.00000000000672,  0.00000000000000 ]
      - [  0.09032649515228,  0.00000000000000 ]
      - [  0.00973234848383,  0.00000000000000 ]
    - # atom 14
      - [  0.00000000004146,  0.00000000000000 ]
      - [  0.35987333373333,  0.00000000000000 ]
      - [  0.03877503147943,  0.00000000000000 ]
    - # atom 15
      - [  0.00000000004118,  0.00000000000000 ]
      - [  0.35987333370046,  0.00000000000000 ]
      - [  0.03877503148145,  0.00000000000000 ]
  - # 5
    frequency:    -0.0000006837
    eigenvector:
    - # atom 1
      - [ -0.00000000000000,  0.00000000000000 ]
      - [ -0.03359576011931,  0.00000000000000 ]
      - [  0.31180421274309,  0.00000000000000 ]
    - # atom 2
      - [  0.00000000008863,  0.00000000000000 ]
      - [ -0.03359576011672,  0.00000000000000 ]
      - [  0.31180421275226,  0.00000000000000 ]
    - # atom 3
      - [ -0.00000000004697,  0.00000000000000 ]
      - [ -0.03359576004334,  0.00000000000000 ]
      - [  0.31180421273666,  0.00000000000000 ]
    - # atom 4
      - [ -0.00000000000439,  0.00000000000000 ]
      - [ -0.03359575996478,  0.00000000000000 ]
      - [  0.31180421273948,  0.00000000000000 ]
    - # atom 5
      - [  0.00000000008435,  0.00000000000000 ]
      - [ -0.03359575996255,  0.00000000000000 ]
      - [  0.31180421274866,  0.00000000000000 ]
    - # atom 6
      - [  0.00000000013091,  0.00000000000000 ]
      - [ -0.03359576003836,  0.00000000000000 ]
      - [  0.31180421275507,  0.00000000000000 ]
    - # atom 7
      - [ -0.00000000014122,  0.00000000000000 ]
      - [ -0.03359576004956,  0.00000000000000 ]
      - [  0.31180421272702,  0.00000000000000 ]
    - # atom 8
      - [ -0.00000000006992,  0.00000000000000 ]
      - [ -0.00973234846625,  0.00000000000000 ]
      - [  0.09032649515385,  0.00000000000000 ]
    - # atom 9
      - [ -0.00000000000995,  0.00000000000000 ]
      - [ -0.00973234852290,  0.00000000000000 ]
      - [  0.09032649516118,  0.00000000000000 ]
    - # atom 10
      - [  0.00000000003620,  0.00000000000000 ]
      - [ -0.00973234852181,  0.00000000000000 ]
      - [  0.09032649516596,  0.00000000000000 ]
    - # atom 11
      - [ -0.00000000001191,  0.00000000000000 ]
      - [ -0.00973234844361,  0.00000000000000 ]
      - [  0.09032649515935,  0.00000000000000 ]
    - # atom 12
      - [  0.00000000005802,  0.00000000000000 ]
      - [ -0.00973234848140,  0.00000000000000 ]
      - [  0.09032649516741,  0.00000000000000 ]
    - # atom 13
      - [  0.00000000003398,  0.00000000000000 ]
      - [ -0.00973234844231,  0.00000000000000 ]
      - [  0.09032649516410,  0.00000000000000 ]
    - # atom 14
      - [ -0.00000000020968,  0.00000000000000 ]
      - [ -0.03877503156719,  0.00000000000000 ]
      - [  0.35987333370059,  0.00000000000000 ]
    - # atom 15
      - [ -0.00000000020826,  0.00000000000000 ]
      - [ -0.03877503140086,  0.00000000000000 ]
      - [  0.35987333369757,  0.00000000000000 ]
  - # 6
    frequency:     0.1058056395
    eigenvector:
    - # atom 1
      - [ -0.00000000000000,  0.00000000000000 ]
      - [ -0.00000000004456,  0.00000000000000 ]
      - [  0.15705759802417,  0.00000000000000 ]
    - # atom 2
      - [  0.00000000005172,  0.00000000000000 ]
      - [ -0.00000000004305,  0.00000000000000 ]
      - [  0.38934693380678,  0.00000000000000 ]
    - # atom 3
      - [ -0.00000000002741,  0.00000000000000 ]
      - [ -0.00000000000023,  0.00000000000000 ]
      - [ -0.02964199326855,  0.00000000000000 ]
    - # atom 4
      - [ -0.00000000000256,  0.00000000000000 ]
      - [  0.00000000004561,  0.00000000000000 ]
      - [  0.01823349759398,  0.00000000000000 ]
    - # atom 5
      - [  0.00000000004922,  0.00000000000000 ]
      - [  0.00000000004691,  0.00000000000000 ]
      - [  0.25111811692118,  0.00000000000000 ]
    - # atom 6
      - [  0.00000000007639,  0.00000000000000 ]
      - [  0.00000000000268,  0.00000000000000 ]
      - [  0.43689774855107,  0.00000000000000 ]
    - # atom 7
      - [ -0.00000000008241,  0.00000000000000 ]
      - [ -0.00000000000386,  0.00000000000000 ]
      - [ -0.27332992159265,  0.00000000000000 ]
    - # atom 8
      - [ -0.00000000004080,  0.00000000000000 ]
      - [  0.00000000000995,  0.00000000000000 ]
      - [ -0.17081371308893,  0.00000000000000 ]
    - # atom 9
      - [ -0.00000000000581,  0.00000000000000 ]
      - [ -0.00000000002310,  0.00000000000000 ]
      - [  0.03349867667907,  0.00000000000000 ]
    - # atom 10
      - [  0.00000000002112,  0.00000000000000 ]
      - [ -0.00000000002247,  0.00000000000000 ]
      - [  0.15474815179167,  0.00000000000000 ]
    - # atom 11
      - [ -0.00000000000695,  0.00000000000000 ]
      - [  0.00000000002316,  0.00000000000000 ]
      - [ -0.03688440665643,  0.00000000000000 ]
    - # atom 12
      - [  0.00000000003386,  0.00000000000000 ]
      - [  0.00000000000111,  0.00000000000000 ]
      - [  0.17931081612141,  0.00000000000000 ]
    - # atom 13
      - [  0.00000000001983,  0.00000000000000 ]
      - [  0.00000000002392,  0.00000000000000 ]
      - [  0.08351173842620,  0.00000000000000 ]
    - # atom 14
      - [ -0.00000000012235,  0.00000000000000 ]
      - [ -0.00000000004922,  0.00000000000000 ]
      - [ -0.37678691891046,  0.00000000000000 ]
    - # atom 15
      - [ -0.00000000012152,  0.00000000000000 ]
      - [  0.00000000004783,  0.00000000000000 ]
      - [ -0.50712885257583,  0.00000000000000 ]
  - # 7
    frequency:     1.7330088727
    eigenvector:
    - # atom 1
      - [ -0.00000000000001,  0.00000000000000 ]
      - [  0.00000000000002,  0.00000000000000 ]
      - [ -0.23673360746882,  0.00000000000000 ]
    - # atom 2
      - [ -0.00000000000001,  0.00000000000000 ]
      - [  0.00000000000002,  0.00000000000000 ]
      - [ -0.26677969300866,  0.00000000000000 ]
    - # atom 3
      - [ -0.00000000000001,  0.00000000000000 ]
      - [  0.00000000000002,  0.00000000000000 ]
      - [  0.00307954849014,  0.00000000000000 ]
    - # atom 4
      - [ -0.00000000000001,  0.00000000000000 ]
      - [  0.00000000000002,  0.00000000000000 ]
      - [  0.24369839798737,  0.00000000000000 ]
    - # atom 5
      - [ -0.00000000000001,  0.00000000000000 ]
      - [  0.00000000000002,  0.00000000000000 ]
      - [  0.26684626889380,  0.00000000000000 ]
    - # atom 6
      - [ -0.00000000000001,  0.00000000000000 ]
      - [  0.00000000000002,  0.00000000000000 ]
      - [ -0.00256163989824,  0.00000000000000 ]
    - # atom 7
      - [ -0.00000000000001,  0.00000000000000 ]
      - [  0.00000000000002,  0.00000000000000 ]
      - [  0.03964104909784,  0.00000000000000 ]
    - # atom 8
      - [ -0.00000000000000,  0.00000000000000 ]
      - [  0.00000000000001,  0.00000000000000 ]
      - [ -0.11099865895620,  0.00000000000000 ]
    - # atom 9
      - [ -0.00000000000000,  0.00000000000000 ]
      - [  0.00000000000000,  0.00000000000000 ]
      - [ -0.11705589490647,  0.00000000000000 ]
    - # atom 10
      - [ -0.00000000000000,  0.00000000000000 ]
      - [  0.00000000000000,  0.00000000000000 ]
      - [ -0.14028762160646,  0.00000000000000 ]
    - # atom 11
      - [ -0.00000000000000,  0.00000000000000 ]
      - [  0.00000000000000,  0.00000000000000 ]
      - [  0.12566633157075,  0.00000000000000 ]
    - # atom 12
      - [ -0.00000000000000,  0.00000000000000 ]
      - [  0.00000000000000,  0.00000000000000 ]
      - [ -0.00140688478921,  0.00000000000000 ]
    - # atom 13
      - [ -0.00000000000000,  0.00000000000000 ]
      - [  0.00000000000001,  0.00000000000000 ]
      - [  0.14080176743263,  0.00000000000000 ]
    - # atom 14
      - [ -0.00000000000002,  0.00000000000000 ]
      - [  0.00000000000002,  0.00000000000000 ]
      - [  0.56661207840322,  0.00000000000000 ]
    - # atom 15
      - [ -0.00000000000002,  0.00000000000000 ]
      - [  0.00000000000002,  0.00000000000000 ]
      - [ -0.58157605072694,  0.00000000000000 ]
  - # 8
    frequency:     4.5108071241
    eigenvector:
    - # atom 1
      - [ -0.00000000000001,  0.00000000000000 ]
      - [  0.00000000000000,  0.00000000000000 ]
      - [ -0.37918673358413,  0.00000000000000 ]
    - # atom 2
      - [ -0.00000000000000,  0.00000000000000 ]
      - [  0.00000000000000,  0.00000000000000 ]
      - [  0.07707941426766,  0.00000000000000 ]
    - # atom 3
      - [ -0.00000000000001,  0.00000000000000 ]
      - [  0.00000000000001,  0.00000000000000 ]
      - [ -0.46336445125446,  0.00000000000000 ]
    - # atom 4
      - [ -0.00000000000001,  0.00000000000000 ]
      - [  0.00000000000002,  0.00000000000000 ]
      - [ -0.38380124026411,  0.00000000000000 ]
    - # atom 5
      - [ -0.00000000000000,  0.00000000000000 ]
      - [  0.00000000000002,  0.00000000000000 ]
      - [  0.08203284677448,  0.00000000000000 ]
    - # atom 6
      - [  0.00000000000000,  0.00000000000000 ]
      - [  0.00000000000001,  0.00000000000000 ]
      - [  0.42075166975003,  0.00000000000000 ]
    - # atom 7
      - [ -0.00000000000001,  0.00000000000000 ]
      - [  0.00000000000001,  0.00000000000000 ]
      - [ -0.05761556566315,  0.00000000000000 ]
    - # atom 8
      - [  0.00000000000001,  0.00000000000000 ]
      - [ -0.00000000000000,  0.00000000000000 ]
      - [  0.17960911933909,  0.00000000000000 ]
    - # atom 9
      - [ -0.00000000000000,  0.00000000000000 ]
      - [ -0.00000000000000,  0.00000000000000 ]
      - [ -0.14213326389100,  0.00000000000000 ]
    - # atom 10
      - [  0.00000000000000,  0.00000000000000 ]
      - [ -0.00000000000000,  0.00000000000000 ]
      - [  0.07280433222357,  0.00000000000000 ]
    - # atom 11
      - [ -0.00000000000000,  0.00000000000000 ]
      - [  0.00000000000001,  0.00000000000000 ]
      - [ -0.15092335490336,  0.00000000000000 ]
    - # atom 12
      - [  0.00000000000000,  0.00000000000000 ]
      - [  0.00000000000000,  0.00000000000000 ]
      - [  0.26505535191748,  0.00000000000000 ]
    - # atom 13
      - [  0.00000000000000,  0.00000000000000 ]
      - [  0.00000000000001,  0.00000000000000 ]
      - [  0.07528167363362,  0.00000000000000 ]
    - # atom 14
      - [  0.00000000000000,  0.00000000000000 ]
      - [  0.00000000000003,  0.00000000000000 ]
      - [  0.29657605821480,  0.00000000000000 ]
    - # atom 15
      - [  0.00000000000000,  0.00000000000000 ]
      - [ -0.00000000000001,  0.00000000000000 ]
      - [  0.23825744632647,  0.00000000000000 ]
  - # 9
    frequency:     6.3684875882
    eigenvector:
    - # atom 1
      - [  0.20394764609281,  0.00000000000000 ]
      - [  0.18712557470156,  0.00000000000000 ]
      - [ -0.00000000000002,  0.00000000000000 ]
    - # atom 2
      - [ -0.08692131113428,  0.00000000000000 ]
      - [  0.19842412112499,  0.00000000000000 ]
      - [  0.00000000000000,  0.00000000000000 ]
    - # atom 3
      - [  0.31765028256329,  0.00000000000000 ]
      - [ -0.00052943005223,  0.00000000000000 ]
      - [ -0.00000000000002,  0.00000000000000 ]
    - # atom 4
      - [  0.21574517937351,  0.00000000000000 ]
      - [ -0.19037410434741,  0.00000000000000 ]
      - [ -0.00000000000002,  0.00000000000000 ]
    - # atom 5
      - [ -0.07313851871401,  0.00000000000000 ]
      - [ -0.21822976395165,  0.00000000000000 ]
      - [ -0.00000000000001,  0.00000000000000 ]
    - # atom 6
      - [ -0.20658614218383,  0.00000000000000 ]
      - [ -0.01294494204219,  0.00000000000000 ]
      - [  0.00000000000001,  0.00000000000000 ]
    - # atom 7
      - [  0.08180529991799,  0.00000000000000 ]
      - [ -0.01458454308857,  0.00000000000000 ]
      - [ -0.00000000000001,  0.00000000000000 ]
    - # atom 8
      - [ -0.14454803230672,  0.00000000000000 ]
      - [  0.09736177486816,  0.00000000000000 ]
      - [  0.00000000000001,  0.00000000000000 ]
    - # atom 9
      - [  0.09280837275824,  0.00000000000000 ]
      - [  0.11168559301983,  0.00000000000000 ]
      - [ -0.00000000000001,  0.00000000000000 ]
    - # atom 10
      - [ -0.05813350086558,  0.00000000000000 ]
      - [  0.11130742964552,  0.00000000000000 ]
      - [  0.00000000000000,  0.00000000000000 ]
    - # atom 11
      - [  0.09494547153335,  0.00000000000000 ]
      - [ -0.10372711418891,  0.00000000000000 ]
      - [ -0.00000000000001,  0.00000000000000 ]
    - # atom 12
      - [ -0.11291965194145,  0.00000000000000 ]
      - [ -0.00528263025295,  0.00000000000000 ]
      - [  0.00000000000001,  0.00000000000000 ]
    - # atom 13
      - [ -0.05131225979543,  0.00000000000000 ]
      - [ -0.11934716805217,  0.00000000000000 ]
      - [ -0.00000000000000,  0.00000000000000 ]
    - # atom 14
      - [ -0.17226175184832,  0.00000000000000 ]
      - [ -0.44378391332672,  0.00000000000000 ]
      - [  0.00000000000001,  0.00000000000000 ]
    - # atom 15
      - [ -0.17483067010068,  0.00000000000000 ]
      - [  0.46497867499591,  0.00000000000000 ]
      - [  0.00000000000000,  0.00000000000000 ]
  - # 10
    frequency:    11.2114734223
    eigenvector:
    - # atom 1
      - [ -0.05846305237222,  0.00000000000000 ]
      - [  0.21748456239586,  0.00000000000000 ]
      - [ -0.00000000000001,  0.00000000000000 ]
    - # atom 2
      - [ -0.07691843176456,  0.00000000000000 ]
      - [  0.27227918256432,  0.00000000000000 ]
      - [  0.00000000000001,  0.00000000000000 ]
    - # atom 3
      - [  0.03488752909808,  0.00000000000000 ]
      - [ -0.02566583012643,  0.00000000000000 ]
      - [  0.00000000000001,  0.00000000000000 ]
    - # atom 4
      - [  0.11164836303230,  0.00000000000000 ]
      - [  0.19543659912649,  0.00000000000000 ]
      - [  0.00000000000001,  0.00000000000000 ]
    - # atom 5
      - [  0.07049380362140,  0.00000000000000 ]
      - [  0.24267441505807,  0.00000000000000 ]
      - [ -0.00000000000001,  0.00000000000000 ]
    - # atom 6
      - [ -0.01733824484542,  0.00000000000000 ]
      - [  0.37668933835816,  0.00000000000000 ]
      - [  0.00000000000001,  0.00000000000000 ]
    - # atom 7
      - [ -0.01965337606940,  0.00000000000000 ]
      - [ -0.24017460439988,  0.00000000000000 ]
      - [  0.00000000000001,  0.00000000000000 ]
    - # atom 8
      - [  0.09814570059794,  0.00000000000000 ]
      - [ -0.11099329196962,  0.00000000000000 ]
      - [ -0.00000000000001,  0.00000000000000 ]
    - # atom 9
      - [  0.01322645615323,  0.00000000000000 ]
      - [  0.11310669765180,  0.00000000000000 ]
      - [ -0.00000000000001,  0.00000000000000 ]
    - # atom 10
      - [ -0.00773058209030,  0.00000000000000 ]
      - [  0.05627324069557,  0.00000000000000 ]
      - [  0.00000000000000,  0.00000000000000 ]
    - # atom 11
      - [  0.01085881608982,  0.00000000000000 ]
      - [  0.08718645936981,  0.00000000000000 ]
      - [  0.00000000000000,  0.00000000000000 ]
    - # atom 12
      - [ -0.00941553981514,  0.00000000000000 ]
      - [  0.10906947197851,  0.00000000000000 ]
      - [  0.00000000000000,  0.00000000000000 ]
    - # atom 13
      - [  0.00166206686160,  0.00000000000000 ]
      - [  0.03653020346509,  0.00000000000000 ]
      - [ -0.00000000000001,  0.00000000000000 ]
    - # atom 14
      - [ -0.12577602114387,  0.00000000000000 ]
      - [ -0.47071587859166,  0.00000000000000 ]
      - [ -0.00000000000000,  0.00000000000000 ]
    - # atom 15
      - [  0.06029134680792,  0.00000000000000 ]
      - [ -0.50234602399876,  0.00000000000000 ]
      - [ -0.00000000000000,  0.00000000000000 ]
  - # 11
    frequency:    11.8686047504
    eigenvector:
    - # atom 1
      - [  0.00000000000000,  0.00000000000000 ]
      - [  0.00000000000001,  0.00000000000000 ]
      - [  0.41355399624889,  0.00000000000000 ]
    - # atom 2
      - [ -0.00000000000000,  0.00000000000000 ]
      - [  0.00000000000001,  0.00000000000000 ]
      - [ -0.42927103061439,  0.00000000000000 ]
    - # atom 3
      - [  0.00000000000000,  0.00000000000000 ]
      - [ -0.00000000000000,  0.00000000000000 ]
      - [  0.03488687479488,  0.00000000000000 ]
    - # atom 4
      - [  0.00000000000000,  0.00000000000000 ]
      - [ -0.00000000000000,  0.00000000000000 ]
      - [ -0.43144616997272,  0.00000000000000 ]
    - # atom 5
      - [ -0.00000000000000,  0.00000000000000 ]
      - [  0.00000000000000,  0.00000000000000 ]
      - [  0.39782573329950,  0.00000000000000 ]
    - # atom 6
      - [ -0.00000000000000,  0.00000000000000 ]
      - [  0.00000000000000,  0.00000000000000 ]
      - [  0.02393983430233,  0.00000000000000 ]
    - # atom 7
      - [  0.00000000000000,  0.00000000000000 ]
      - [ -0.00000000000000,  0.00000000000000 ]
      - [  0.01754266697820,  0.00000000000000 ]
    - # atom 8
      - [ -0.00000000000000,  0.00000000000000 ]
      - [ -0.00000000000000,  0.00000000000000 ]
      - [ -0.05309231792732,  0.00000000000000 ]
    - # atom 9
      - [  0.00000000000000,  0.00000000000000 ]
      - [  0.00000000000000,  0.00000000000000 ]
      - [  0.26474775632687,  0.00000000000000 ]
    - # atom 10
      - [ -0.00000000000000,  0.00000000000000 ]
      - [  0.00000000000000,  0.00000000000000 ]
      - [ -0.27443790529311,  0.00000000000000 ]
    - # atom 11
      - [  0.00000000000000,  0.00000000000000 ]
      - [ -0.00000000000000,  0.00000000000000 ]
      - [ -0.29654778129182,  0.00000000000000 ]
    - # atom 12
      - [ -0.00000000000000,  0.00000000000000 ]
      - [  0.00000000000000,  0.00000000000000 ]
      - [  0.01407979764980,  0.00000000000000 ]
    - # atom 13
      - [ -0.00000000000000,  0.00000000000000 ]
      - [ -0.00000000000000,  0.00000000000000 ]
      - [  0.24604320330338,  0.00000000000000 ]
    - # atom 14
      - [ -0.00000000000001,  0.00000000000000 ]
      - [ -0.00000000000002,  0.00000000000000 ]
      - [ -0.02462659785347,  0.00000000000000 ]
    - # atom 15
      - [  0.00000000000000,  0.00000000000000 ]
      - [ -0.00000000000001,  0.00000000000000 ]
      - [  0.02610595466695,  0.00000000000000 ]
  - # 12
    frequency:    12.5144306871
    eigenvector:
    - # atom 1
      - [  0.00000000000000,  0.00000000000000 ]
      - [ -0.00000000000000,  0.00000000000000 ]