phonopy:
  version: 1.12.2
  configuration:
    dim: "1 1 1"
    create_displacements: ".true."

supercell_matrix:
- [   1,   0,   0 ]
- [   0,   1,   0 ]
- [   0,   0,   1 ]

space_group:
  type: "Pm"
  number: 6
  Hall_symbol: "P -2y"

primitive_cell:
  lattice:
  - [    19.373120000000000,     0.000000000000000,     0.000000000000000 ] # a
  - [     0.000000000000000,    21.917210000000001,     0.000000000000000 ] # b
  - [     0.000000000000000,     0.000000000000000,    15.000000000000000 ] # c
  points:
  - symbol: C  # 1
    coordinates: [  0.436516745590189,  0.485368960995528,  0.500000000000000 ]
    mass: 12.010700
  - symbol: C  # 2
    coordinates: [  0.438614189957812,  0.421844972439044,  0.500000000000000 ]
    mass: 12.010700
  - symbol: C  # 3
    coordinates: [  0.498131729528372,  0.519049321155823,  0.500000000000000 ]
    mass: 12.010700
  - symbol: C  # 4
    coordinates: [  0.561823756627044,  0.488524752752906,  0.500000000000000 ]
    mass: 12.010700
  - symbol: C  # 5
    coordinates: [  0.563628781620507,  0.424919322517789,  0.500000000000000 ]
    mass: 12.010700
  - symbol: C  # 6
    coordinates: [  0.502153552084521,  0.391540114324940,  0.500000000000000 ]
    mass: 12.010700
  - symbol: C  # 7
    coordinates: [  0.493089486023486,  0.586705299785913,  0.500000000000000 ]
    mass: 12.010700
  - symbol: H  # 8
    coordinates: [  0.546260937063007,  0.658697717523314,  0.500000000000000 ]
    mass: 1.007940
  - symbol: H  # 9
    coordinates: [  0.387622955772043,  0.509969387373333,  0.500000000000000 ]
    mass: 1.007940
  - symbol: H  # 10
    coordinates: [  0.390658250075183,  0.395797949331953,  0.500000000000000 ]
    mass: 1.007940
  - symbol: H  # 11
    coordinates: [  0.609509734349207,  0.514810920852795,  0.500000000000000 ]
    mass: 1.007940
  - symbol: H  # 12
    coordinates: [  0.503755643368520,  0.341788837545202,  0.500000000000000 ]
    mass: 1.007940
  - symbol: H  # 13
    coordinates: [  0.613170786307370,  0.401304186925610,  0.500000000000000 ]
    mass: 1.007940
  - symbol: O  # 14
    coordinates: [  0.439147100865209,  0.615723831615007,  0.500000000000000 ]
    mass: 15.999400
  - symbol: O  # 15
    coordinates: [  0.556170063127755,  0.614888955305193,  0.500000000000000 ]
    mass: 15.999400
  reciprocal_lattice: # without 2pi
  - [     0.051617911828348,     0.000000000000000,     0.000000000000000 ] # a*
  - [     0.000000000000000,     0.045626245311333,     0.000000000000000 ] # b*
  - [     0.000000000000000,     0.000000000000000,     0.066666666666667 ] # c*

unit_cell:
  lattice:
  - [    19.373120000000000,     0.000000000000000,     0.000000000000000 ] # a
  - [     0.000000000000000,    21.917210000000001,     0.000000000000000 ] # b
  - [     0.000000000000000,     0.000000000000000,    15.000000000000000 ] # c
  points:
  - symbol: C  # 1
    coordinates: [  0.436516745590189,  0.485368960995528,  0.500000000000000 ]
    mass: 12.010700
    reduced_to: 1
  - symbol: C  # 2
    coordinates: [  0.438614189957812,  0.421844972439044,  0.500000000000000 ]
    mass: 12.010700
    reduced_to: 2
  - symbol: C  # 3
    coordinates: [  0.498131729528372,  0.519049321155823,  0.500000000000000 ]
    mass: 12.010700
    reduced_to: 3
  - symbol: C  # 4
    coordinates: [  0.561823756627044,  0.488524752752906,  0.500000000000000 ]
    mass: 12.010700
    reduced_to: 4
  - symbol: C  # 5
    coordinates: [  0.563628781620507,  0.424919322517789,  0.500000000000000 ]
    mass: 12.010700
    reduced_to: 5
  - symbol: C  # 6
    coordinates: [  0.502153552084521,  0.391540114324940,  0.500000000000000 ]
    mass: 12.010700
    reduced_to: 6
  - symbol: C  # 7
    coordinates: [  0.493089486023486,  0.586705299785913,  0.500000000000000 ]
    mass: 12.010700
    reduced_to: 7
  - symbol: H  # 8
    coordinates: [  0.546260937063007,  0.658697717523314,  0.500000000000000 ]
    mass: 1.007940
    reduced_to: 8
  - symbol: H  # 9
    coordinates: [  0.387622955772043,  0.509969387373333,  0.500000000000000 ]
    mass: 1.007940
    reduced_to: 9
  - symbol: H  # 10
    coordinates: [  0.390658250075183,  0.395797949331953,  0.500000000000000 ]
    mass: 1.007940
    reduced_to: 10
  - symbol: H  # 11
    coordinates: [  0.609509734349207,  0.514810920852795,  0.500000000000000 ]
    mass: 1.007940
    reduced_to: 11
  - symbol: H  # 12
    coordinates: [  0.503755643368520,  0.341788837545202,  0.500000000000000 ]
    mass: 1.007940
    reduced_to: 12
  - symbol: H  # 13
    coordinates: [  0.613170786307370,  0.401304186925610,  0.500000000000000 ]
    mass: 1.007940
    reduced_to: 13
  - symbol: O  # 14
    coordinates: [  0.439147100865209,  0.615723831615007,  0.500000000000000 ]
    mass: 15.999400
    reduced_to: 14
  - symbol: O  # 15
    coordinates: [  0.556170063127755,  0.614888955305193,  0.500000000000000 ]
    mass: 15.999400
    reduced_to: 15

supercell:
  lattice:
  - [    19.373120000000000,     0.000000000000000,     0.000000000000000 ] # a
  - [     0.000000000000000,    21.917210000000001,     0.000000000000000 ] # b
  - [     0.000000000000000,     0.000000000000000,    15.000000000000000 ] # c
  points:
  - symbol: C  # 1
    coordinates: [  0.436516745590189,  0.485368960995528,  0.500000000000000 ]
    mass: 12.010700
    reduced_to: 1
  - symbol: C  # 2
    coordinates: [  0.438614189957812,  0.421844972439044,  0.500000000000000 ]
    mass: 12.010700
    reduced_to: 2
  - symbol: C  # 3
    coordinates: [  0.498131729528372,  0.519049321155823,  0.500000000000000 ]
    mass: 12.010700
    reduced_to: 3
  - symbol: C  # 4
    coordinates: [  0.561823756627044,  0.488524752752906,  0.500000000000000 ]
    mass: 12.010700
    reduced_to: 4
  - symbol: C  # 5
    coordinates: [  0.563628781620507,  0.424919322517789,  0.500000000000000 ]
    mass: 12.010700
    reduced_to: 5
  - symbol: C  # 6
    coordinates: [  0.502153552084521,  0.391540114324940,  0.500000000000000 ]
    mass: 12.010700
    reduced_to: 6
  - symbol: C  # 7
    coordinates: [  0.493089486023486,  0.586705299785913,  0.500000000000000 ]
    mass: 12.010700
    reduced_to: 7
  - symbol: H  # 8
    coordinates: [  0.546260937063007,  0.658697717523314,  0.500000000000000 ]
    mass: 1.007940
    reduced_to: 8
  - symbol: H  # 9
    coordinates: [  0.387622955772043,  0.509969387373333,  0.500000000000000 ]
    mass: 1.007940
    reduced_to: 9
  - symbol: H  # 10
    coordinates: [  0.390658250075183,  0.395797949331953,  0.500000000000000 ]
    mass: 1.007940
    reduced_to: 10
  - symbol: H  # 11
    coordinates: [  0.609509734349207,  0.514810920852795,  0.500000000000000 ]
    mass: 1.007940
    reduced_to: 11
  - symbol: H  # 12
    coordinates: [  0.503755643368520,  0.341788837545202,  0.500000000000000 ]
    mass: 1.007940
    reduced_to: 12
  - symbol: H  # 13
    coordinates: [  0.613170786307370,  0.401304186925610,  0.500000000000000 ]
    mass: 1.007940
    reduced_to: 13
  - symbol: O  # 14
    coordinates: [  0.439147100865209,  0.615723831615007,  0.500000000000000 ]
    mass: 15.999400
    reduced_to: 14
  - symbol: O  # 15
    coordinates: [  0.556170063127755,  0.614888955305193,  0.500000000000000 ]
    mass: 15.999400
    reduced_to: 15
