natom:   12
displacements:
- atom:    1
  direction:
    [   1.0000000000000000,  0.0000000000000000,  1.0000000000000000 ]
  displacement:
    [   0.0078978937457307,  0.0000000000000000,  0.0061337814096321 ]
- atom:    1
  direction:
    [  -1.0000000000000000,  0.0000000000000000, -1.0000000000000000 ]
  displacement:
    [  -0.0078978937457307,  0.0000000000000000, -0.0061337814096321 ]
- atom:    1
  direction:
    [   0.0000000000000000,  1.0000000000000000,  0.0000000000000000 ]
  displacement:
    [   0.0000000000000000,  0.0100000000000000,  0.0000000000000000 ]
- atom:    1
  direction:
    [   0.0000000000000000, -1.0000000000000000,  0.0000000000000000 ]
  displacement:
    [   0.0000000000000000, -0.0100000000000000,  0.0000000000000000 ]
- atom:    2
  direction:
    [   1.0000000000000000,  0.0000000000000000,  1.0000000000000000 ]
  displacement:
    [   0.0078978937457307,  0.0000000000000000,  0.0061337814096321 ]
- atom:    2
  direction:
    [  -1.0000000000000000,  0.0000000000000000, -1.0000000000000000 ]
  displacement:
    [  -0.0078978937457307,  0.0000000000000000, -0.0061337814096321 ]
- atom:    2
  direction:
    [   0.0000000000000000,  1.0000000000000000,  0.0000000000000000 ]
  displacement:
    [   0.0000000000000000,  0.0100000000000000,  0.0000000000000000 ]
- atom:    2
  direction:
    [   0.0000000000000000, -1.0000000000000000,  0.0000000000000000 ]
  displacement:
    [   0.0000000000000000, -0.0100000000000000,  0.0000000000000000 ]
- atom:    3
  direction:
    [   1.0000000000000000,  0.0000000000000000,  1.0000000000000000 ]
  displacement:
    [   0.0078978937457307,  0.0000000000000000,  0.0061337814096321 ]
- atom:    3
  direction:
    [  -1.0000000000000000,  0.0000000000000000, -1.0000000000000000 ]
  displacement:
    [  -0.0078978937457307,  0.0000000000000000, -0.0061337814096321 ]
- atom:    3
  direction:
    [   0.0000000000000000,  1.0000000000000000,  0.0000000000000000 ]
  displacement:
    [   0.0000000000000000,  0.0100000000000000,  0.0000000000000000 ]
- atom:    3
  direction:
    [   0.0000000000000000, -1.0000000000000000,  0.0000000000000000 ]
  displacement:
    [   0.0000000000000000, -0.0100000000000000,  0.0000000000000000 ]
- atom:    7
  direction:
    [   1.0000000000000000,  0.0000000000000000,  1.0000000000000000 ]
  displacement:
    [   0.0078978937457307,  0.0000000000000000,  0.0061337814096321 ]
- atom:    7
  direction:
    [  -1.0000000000000000,  0.0000000000000000, -1.0000000000000000 ]
  displacement:
    [  -0.0078978937457307,  0.0000000000000000, -0.0061337814096321 ]
- atom:    7
  direction:
    [   0.0000000000000000,  1.0000000000000000,  0.0000000000000000 ]
  displacement:
    [   0.0000000000000000,  0.0100000000000000,  0.0000000000000000 ]
- atom:    7
  direction:
    [   0.0000000000000000, -1.0000000000000000,  0.0000000000000000 ]
  displacement:
    [   0.0000000000000000, -0.0100000000000000,  0.0000000000000000 ]
- atom:    8
  direction:
    [   1.0000000000000000,  0.0000000000000000,  1.0000000000000000 ]
  displacement:
    [   0.0078978937457307,  0.0000000000000000,  0.0061337814096321 ]
- atom:    8
  direction:
    [  -1.0000000000000000,  0.0000000000000000, -1.0000000000000000 ]
  displacement:
    [  -0.0078978937457307,  0.0000000000000000, -0.0061337814096321 ]
- atom:    8
  direction:
    [   0.0000000000000000,  1.0000000000000000,  0.0000000000000000 ]
  displacement:
    [   0.0000000000000000,  0.0100000000000000,  0.0000000000000000 ]
- atom:    8
  direction:
    [   0.0000000000000000, -1.0000000000000000,  0.0000000000000000 ]
  displacement:
    [   0.0000000000000000, -0.0100000000000000,  0.0000000000000000 ]
- atom:    9
  direction:
    [   1.0000000000000000,  0.0000000000000000,  1.0000000000000000 ]
  displacement:
    [   0.0078978937457307,  0.0000000000000000,  0.0061337814096321 ]
- atom:    9
  direction:
    [  -1.0000000000000000,  0.0000000000000000, -1.0000000000000000 ]
  displacement:
    [  -0.0078978937457307,  0.0000000000000000, -0.0061337814096321 ]
- atom:    9
  direction:
    [   0.0000000000000000,  1.0000000000000000,  0.0000000000000000 ]
  displacement:
    [   0.0000000000000000,  0.0100000000000000,  0.0000000000000000 ]
- atom:    9
  direction:
    [   0.0000000000000000, -1.0000000000000000,  0.0000000000000000 ]
  displacement:
    [   0.0000000000000000, -0.0100000000000000,  0.0000000000000000 ]
lattice:
- [    19.3140900000000002,     0.0000000000000000,     0.0000000000000000 ] # a
- [     0.0000000000000000,    19.9630100000000006,     0.0000000000000000 ] # b
- [     0.0000000000000000,     0.0000000000000000,    15.0000000000000000 ] # c
atoms:
- symbol: C  # 1
  position: [  0.4375674584519648,  0.5353955196219601,  0.5000000000000000 ]
  mass: 12.010700
- symbol: C  # 2
  position: [  0.4371004407158547,  0.4653870254803805,  0.5000000000000000 ]
  mass: 12.010700
- symbol: C  # 3
  position: [  0.5004666800110046,  0.5700082491454838,  0.5000000000000000 ]
  mass: 12.010700
- symbol: C  # 4
  position: [  0.5628995592841450,  0.5346129745196195,  0.5000000000000000 ]
  mass: 12.010700
- symbol: C  # 5
  position: [  0.5624325415480353,  0.4646049813045011,  0.5000000000000000 ]
  mass: 12.010700
- symbol: C  # 6
  position: [  0.4995333199889953,  0.4299917508545162,  0.5000000000000000 ]
  mass: 12.010700
- symbol: H  # 7
  position: [  0.3888373736372454,  0.5630219938805826,  0.5000000000000000 ]
  mass: 1.007940
- symbol: H  # 8
  position: [  0.5008312706391596,  0.6246512026493289,  0.5000000000000000 ]
  mass: 1.007940
- symbol: H  # 9
  position: [  0.3880063187498117,  0.4383710164372399,  0.5000000000000000 ]
  mass: 1.007940
- symbol: H  # 10
  position: [  0.4991687293608402,  0.3753487973506711,  0.5000000000000000 ]
  mass: 1.007940
- symbol: H  # 11
  position: [  0.6119936812501884,  0.5616294844892213,  0.5000000000000000 ]
  mass: 1.007940
- symbol: H  # 12
  position: [  0.6111626263627548,  0.4369780061194173,  0.5000000000000000 ]
  mass: 1.007940