mesh: [     1,     1,     1 ]
nqpoint: 1      
reciprocal_lattice:
- [   0.05177567,   0.00000000,   0.00000000 ] # a*
- [   0.00000000,   0.05009265,   0.00000000 ] # b*
- [   0.00000000,   0.00000000,   0.06666667 ] # c*
natom:   12     
lattice:
- [    19.3140900000000002,     0.0000000000000000,     0.0000000000000000 ] # a
- [     0.0000000000000000,    19.9630100000000006,     0.0000000000000000 ] # b
- [     0.0000000000000000,     0.0000000000000000,    15.0000000000000000 ] # c
atoms:
- symbol: C  # 1
  position: [  0.4375674584519648,  0.5353955196219601,  0.5000000000000000 ]
  mass: 12.010700
- symbol: C  # 2
  position: [  0.4371004407158547,  0.4653870254803805,  0.5000000000000000 ]
  mass: 12.010700
- symbol: C  # 3
  position: [  0.5004666800110046,  0.5700082491454838,  0.5000000000000000 ]
  mass: 12.010700
- symbol: C  # 4
  position: [  0.5628995592841450,  0.5346129745196195,  0.5000000000000000 ]
  mass: 12.010700
- symbol: C  # 5
  position: [  0.5624325415480353,  0.4646049813045011,  0.5000000000000000 ]
  mass: 12.010700
- symbol: C  # 6
  position: [  0.4995333199889953,  0.4299917508545162,  0.5000000000000000 ]
  mass: 12.010700
- symbol: H  # 7
  position: [  0.3888373736372454,  0.5630219938805826,  0.5000000000000000 ]
  mass: 1.007940
- symbol: H  # 8
  position: [  0.5008312706391596,  0.6246512026493289,  0.5000000000000000 ]
  mass: 1.007940
- symbol: H  # 9
  position: [  0.3880063187498117,  0.4383710164372399,  0.5000000000000000 ]
  mass: 1.007940
- symbol: H  # 10
  position: [  0.4991687293608402,  0.3753487973506711,  0.5000000000000000 ]
  mass: 1.007940
- symbol: H  # 11
  position: [  0.6119936812501884,  0.5616294844892213,  0.5000000000000000 ]
  mass: 1.007940
- symbol: H  # 12
  position: [  0.6111626263627548,  0.4369780061194173,  0.5000000000000000 ]
  mass: 1.007940
supercell_matrix:
- [    1,    0,    0 ]
- [    0,    1,    0 ]
- [    0,    0,    1 ]

phonon:
- q-position: [    0.0000000,    0.0000000,    0.0000000 ]
  weight: 1    
  band:
  - # 1
    frequency:    -0.3335070100
    eigenvector:
    - # atom 1
      - [  0.00000000000000,  0.00000000000000 ]
      - [ -0.00000000000382,  0.00000000000000 ]
      - [  0.43828397060806,  0.00000000000000 ]
    - # atom 2
      - [  0.00000000000105,  0.00000000000000 ]
      - [ -0.00000000000383,  0.00000000000000 ]
      - [  0.45006878103178,  0.00000000000000 ]
    - # atom 3
      - [ -0.00000000000052,  0.00000000000000 ]
      - [ -0.00000000000291,  0.00000000000000 ]
      - [ -0.01180127549463,  0.00000000000000 ]
    - # atom 4
      - [  0.00000000000001,  0.00000000000000 ]
      - [ -0.00000000000200,  0.00000000000000 ]
      - [ -0.45006878103722,  0.00000000000000 ]
    - # atom 5
      - [  0.00000000000106,  0.00000000000000 ]
      - [ -0.00000000000201,  0.00000000000000 ]
      - [ -0.43828397061351,  0.00000000000000 ]
    - # atom 6
      - [  0.00000000000158,  0.00000000000000 ]
      - [ -0.00000000000292,  0.00000000000000 ]
      - [  0.01180127548919,  0.00000000000000 ]
    - # atom 7
      - [ -0.00000000000012,  0.00000000000000 ]
      - [ -0.00000000000131,  0.00000000000000 ]
      - [  0.22624847975651,  0.00000000000000 ]
    - # atom 8
      - [ -0.00000000000039,  0.00000000000000 ]
      - [ -0.00000000000084,  0.00000000000000 ]
      - [ -0.00608549552081,  0.00000000000000 ]
    - # atom 9
      - [  0.00000000000042,  0.00000000000000 ]
      - [ -0.00000000000132,  0.00000000000000 ]
      - [  0.23233720212646,  0.00000000000000 ]
    - # atom 10
      - [  0.00000000000070,  0.00000000000000 ]
      - [ -0.00000000000085,  0.00000000000000 ]
      - [  0.00608549551924,  0.00000000000000 ]
    - # atom 11
      - [ -0.00000000000011,  0.00000000000000 ]
      - [ -0.00000000000037,  0.00000000000000 ]
      - [ -0.23233720212803,  0.00000000000000 ]
    - # atom 12
      - [  0.00000000000043,  0.00000000000000 ]
      - [ -0.00000000000038,  0.00000000000000 ]
      - [ -0.22624847975809,  0.00000000000000 ]
  - # 2
    frequency:    -0.2174988539
    eigenvector:
    - # atom 1
      - [  0.18338772208240,  0.00000000000000 ]
      - [  0.31306174255531,  0.00000000000000 ]
      - [ -0.00000000000165,  0.00000000000000 ]
    - # atom 2
      - [ -0.17940093602492,  0.00000000000000 ]
      - [  0.31536466421673,  0.00000000000000 ]
      - [ -0.00000000000182,  0.00000000000000 ]
    - # atom 3
      - [  0.36280718063153,  0.00000000000000 ]
      - [ -0.00231179008059,  0.00000000000000 ]
      - [ -0.00000000000285,  0.00000000000000 ]
    - # atom 4
      - [  0.17940093600807,  0.00000000000000 ]
      - [ -0.31536466420826,  0.00000000000000 ]
      - [ -0.00000000000423,  0.00000000000000 ]
    - # atom 5
      - [ -0.18338772209925,  0.00000000000000 ]
      - [ -0.31306174254684,  0.00000000000000 ]
      - [ -0.00000000000441,  0.00000000000000 ]
    - # atom 6
      - [ -0.36280718064838,  0.00000000000000 ]
      - [  0.00231179008906,  0.00000000000000 ]
      - [ -0.00000000000321,  0.00000000000000 ]
    - # atom 7
      - [  0.09461123406905,  0.00000000000000 ]
      - [  0.16149545755226,  0.00000000000000 ]
      - [ -0.00000000000016,  0.00000000000000 ]
    - # atom 8
      - [  0.18713829628640,  0.00000000000000 ]
      - [ -0.00119656207880,  0.00000000000000 ]
      - [ -0.00000000000078,  0.00000000000000 ]
    - # atom 9
      - [ -0.09254708205256,  0.00000000000000 ]
      - [  0.16269026475489,  0.00000000000000 ]
      - [ -0.00000000000026,  0.00000000000000 ]
    - # atom 10
      - [ -0.18713829629128,  0.00000000000000 ]
      - [  0.00119656208125,  0.00000000000000 ]
      - [ -0.00000000000097,  0.00000000000000 ]
    - # atom 11
      - [  0.09254708204768,  0.00000000000000 ]
      - [ -0.16269026475243,  0.00000000000000 ]
      - [ -0.00000000000150,  0.00000000000000 ]
    - # atom 12
      - [ -0.09461123407393,  0.00000000000000 ]
      - [ -0.16149545754981,  0.00000000000000 ]
      - [ -0.00000000000159,  0.00000000000000 ]
  - # 3
    frequency:    -0.1578043703
    eigenvector:
    - # atom 1
      - [ -0.00000000000000,  0.00000000000000 ]
      - [ -0.00000000002613,  0.00000000000000 ]
      - [  0.26662174954710,  0.00000000000000 ]
    - # atom 2
      - [  0.00000000000015,  0.00000000000000 ]
      - [ -0.00000000002613,  0.00000000000000 ]
      - [ -0.24619225850614,  0.00000000000000 ]
    - # atom 3
      - [ -0.00000000000008,  0.00000000000000 ]
      - [ -0.00000000002600,  0.00000000000000 ]
      - [  0.51302645192070,  0.00000000000000 ]
    - # atom 4
      - [  0.00000000000000,  0.00000000000000 ]
      - [ -0.00000000002587,  0.00000000000000 ]
      - [  0.24619225851787,  0.00000000000000 ]
    - # atom 5
      - [  0.00000000000015,  0.00000000000000 ]
      - [ -0.00000000002587,  0.00000000000000 ]
      - [ -0.26662174953538,  0.00000000000000 ]
    - # atom 6
      - [  0.00000000000023,  0.00000000000000 ]
      - [ -0.00000000002600,  0.00000000000000 ]
      - [ -0.51302645190897,  0.00000000000000 ]
    - # atom 7
      - [ -0.00000000000002,  0.00000000000000 ]
      - [ -0.00000000000760,  0.00000000000000 ]
      - [  0.13763221077066,  0.00000000000000 ]
    - # atom 8
      - [ -0.00000000000006,  0.00000000000000 ]
      - [ -0.00000000000753,  0.00000000000000 ]
      - [  0.26459835053461,  0.00000000000000 ]
    - # atom 9
      - [  0.00000000000006,  0.00000000000000 ]
      - [ -0.00000000000760,  0.00000000000000 ]
      - [ -0.12708722048135,  0.00000000000000 ]
    - # atom 10
      - [  0.00000000000010,  0.00000000000000 ]
      - [ -0.00000000000753,  0.00000000000000 ]
      - [ -0.26459835053122,  0.00000000000000 ]
    - # atom 11
      - [ -0.00000000000002,  0.00000000000000 ]
      - [ -0.00000000000746,  0.00000000000000 ]
      - [  0.12708722048475,  0.00000000000000 ]
    - # atom 12
      - [  0.00000000000006,  0.00000000000000 ]
      - [ -0.00000000000746,  0.00000000000000 ]
      - [ -0.13763221076727,  0.00000000000000 ]
  - # 4
    frequency:    -0.0000018118
    eigenvector:
    - # atom 1
      - [  0.00000000000000,  0.00000000000000 ]
      - [ -0.18956265749642,  0.00000000000000 ]
      - [  0.34326208634274,  0.00000000000000 ]
    - # atom 2
      - [ -0.00000000000434,  0.00000000000000 ]
      - [ -0.18956265749640,  0.00000000000000 ]
      - [  0.34326208636592,  0.00000000000000 ]
    - # atom 3
      - [  0.00000000000215,  0.00000000000000 ]
      - [ -0.18956265750020,  0.00000000000000 ]
      - [  0.34326208633050,  0.00000000000000 ]
    - # atom 4
      - [ -0.00000000000005,  0.00000000000000 ]
      - [ -0.18956265750395,  0.00000000000000 ]
      - [  0.34326208634147,  0.00000000000000 ]
    - # atom 5
      - [ -0.00000000000439,  0.00000000000000 ]
      - [ -0.18956265750392,  0.00000000000000 ]
      - [  0.34326208636463,  0.00000000000000 ]
    - # atom 6
      - [ -0.00000000000654,  0.00000000000000 ]
      - [ -0.18956265750015,  0.00000000000000 ]
      - [  0.34326208637689,  0.00000000000000 ]
    - # atom 7
      - [  0.00000000000050,  0.00000000000000 ]
      - [ -0.05491436537794,  0.00000000000000 ]
      - [  0.09943951977986,  0.00000000000000 ]
    - # atom 8
      - [  0.00000000000160,  0.00000000000000 ]
      - [ -0.05491436537989,  0.00000000000000 ]
      - [  0.09943951977356,  0.00000000000000 ]
    - # atom 9
      - [ -0.00000000000174,  0.00000000000000 ]
      - [ -0.05491436537793,  0.00000000000000 ]
      - [  0.09943951979184,  0.00000000000000 ]
    - # atom 10
      - [ -0.00000000000288,  0.00000000000000 ]
      - [ -0.05491436537986,  0.00000000000000 ]
      - [  0.09943951979748,  0.00000000000000 ]
    - # atom 11
      - [  0.00000000000047,  0.00000000000000 ]
      - [ -0.05491436538182,  0.00000000000000 ]
      - [  0.09943951977921,  0.00000000000000 ]
    - # atom 12
      - [ -0.00000000000177,  0.00000000000000 ]
      - [ -0.05491436538181,  0.00000000000000 ]
      - [  0.09943951979117,  0.00000000000000 ]
  - # 5
    frequency:     0.0000008412
    eigenvector:
    - # atom 1
      - [  0.00000000002257,  0.00000000000000 ]
      - [  0.34326208635190,  0.00000000000000 ]
      - [  0.18956265751804,  0.00000000000000 ]
    - # atom 2
      - [  0.00000000002465,  0.00000000000000 ]
      - [  0.34326208635189,  0.00000000000000 ]
      - [  0.18956265749210,  0.00000000000000 ]
    - # atom 3
      - [  0.00000000002155,  0.00000000000000 ]
      - [  0.34326208635371,  0.00000000000000 ]
      - [  0.18956265752612,  0.00000000000000 ]
    - # atom 4
      - [  0.00000000002260,  0.00000000000000 ]
      - [  0.34326208635550,  0.00000000000000 ]
      - [  0.18956265750825,  0.00000000000000 ]
    - # atom 5
      - [  0.00000000002467,  0.00000000000000 ]
      - [  0.34326208635548,  0.00000000000000 ]
      - [  0.18956265748230,  0.00000000000000 ]
    - # atom 6
      - [  0.00000000002570,  0.00000000000000 ]
      - [  0.34326208635368,  0.00000000000000 ]
      - [  0.18956265747423,  0.00000000000000 ]
    - # atom 7
      - [  0.00000000000630,  0.00000000000000 ]
      - [  0.09943951978460,  0.00000000000000 ]
      - [  0.05491436538910,  0.00000000000000 ]
    - # atom 8
      - [  0.00000000000577,  0.00000000000000 ]
      - [  0.09943951978553,  0.00000000000000 ]
      - [  0.05491436539326,  0.00000000000000 ]
    - # atom 9
      - [  0.00000000000737,  0.00000000000000 ]
      - [  0.09943951978459,  0.00000000000000 ]
      - [  0.05491436537571,  0.00000000000000 ]
    - # atom 10
      - [  0.00000000000791,  0.00000000000000 ]
      - [  0.09943951978551,  0.00000000000000 ]
      - [  0.05491436536649,  0.00000000000000 ]
    - # atom 11
      - [  0.00000000000631,  0.00000000000000 ]
      - [  0.09943951978645,  0.00000000000000 ]
      - [  0.05491436538404,  0.00000000000000 ]
    - # atom 12
      - [  0.00000000000739,  0.00000000000000 ]
      - [  0.09943951978644,  0.00000000000000 ]
      - [  0.05491436537065,  0.00000000000000 ]
  - # 6
    frequency:     0.0000011763
    eigenvector:
    - # atom 1
      - [ -0.39212607800235,  0.00000000000000 ]
      - [  0.00000000001502,  0.00000000000000 ]
      - [  0.00000000001014,  0.00000000000000 ]
    - # atom 2
      - [ -0.39212607799456,  0.00000000000000 ]
      - [  0.00000000001497,  0.00000000000000 ]
      - [  0.00000000001006,  0.00000000000000 ]
    - # atom 3
      - [ -0.39212607800621,  0.00000000000000 ]
      - [  0.00000000002179,  0.00000000000000 ]
      - [  0.00000000000958,  0.00000000000000 ]
    - # atom 4
      - [ -0.39212607800227,  0.00000000000000 ]
      - [  0.00000000002852,  0.00000000000000 ]
      - [  0.00000000000894,  0.00000000000000 ]
    - # atom 5
      - [ -0.39212607799447,  0.00000000000000 ]
      - [  0.00000000002847,  0.00000000000000 ]
      - [  0.00000000000885,  0.00000000000000 ]
    - # atom 6
      - [ -0.39212607799062,  0.00000000000000 ]
      - [  0.00000000002169,  0.00000000000000 ]
      - [  0.00000000000941,  0.00000000000000 ]
    - # atom 7
      - [ -0.11359491899161,  0.00000000000000 ]
      - [  0.00000000000283,  0.00000000000000 ]
      - [  0.00000000000308,  0.00000000000000 ]
    - # atom 8
      - [ -0.11359491899360,  0.00000000000000 ]
      - [  0.00000000000632,  0.00000000000000 ]
      - [  0.00000000000280,  0.00000000000000 ]
    - # atom 9
      - [ -0.11359491898759,  0.00000000000000 ]
      - [  0.00000000000280,  0.00000000000000 ]
      - [  0.00000000000304,  0.00000000000000 ]
    - # atom 10
      - [ -0.11359491898556,  0.00000000000000 ]
      - [  0.00000000000627,  0.00000000000000 ]
      - [  0.00000000000271,  0.00000000000000 ]
    - # atom 11
      - [ -0.11359491899157,  0.00000000000000 ]
      - [  0.00000000000979,  0.00000000000000 ]
      - [  0.00000000000246,  0.00000000000000 ]
    - # atom 12
      - [ -0.11359491898755,  0.00000000000000 ]
      - [  0.00000000000977,  0.00000000000000 ]
      - [  0.00000000000242,  0.00000000000000 ]
  - # 7
    frequency:    11.8353231638
    eigenvector:
    - # atom 1
      - [ -0.00000000000000,  0.00000000000000 ]
      - [ -0.00000000000000,  0.00000000000000 ]
      - [  0.25340549493865,  0.00000000000000 ]
    - # atom 2
      - [ -0.00000000000000,  0.00000000000000 ]
      - [ -0.00000000000000,  0.00000000000000 ]
      - [  0.23023833544272,  0.00000000000000 ]
    - # atom 3
      - [  0.00000000000000,  0.00000000000000 ]
      - [ -0.00000000000000,  0.00000000000000 ]
      - [ -0.48392342392445,  0.00000000000000 ]
    - # atom 4
      - [  0.00000000000000,  0.00000000000000 ]
      - [ -0.00000000000000,  0.00000000000000 ]
      - [  0.23023833544272,  0.00000000000000 ]
    - # atom 5
      - [ -0.00000000000000,  0.00000000000000 ]
      - [ -0.00000000000000,  0.00000000000000 ]
      - [  0.25340549493865,  0.00000000000000 ]
    - # atom 6
      - [  0.00000000000000,  0.00000000000000 ]
      - [  0.00000000000000,  0.00000000000000 ]
      - [ -0.48392342392445,  0.00000000000000 ]
    - # atom 7
      - [  0.00000000000000,  0.00000000000000 ]
      - [ -0.00000000000000,  0.00000000000000 ]
      - [  0.16516613330865,  0.00000000000000 ]
    - # atom 8
      - [ -0.00000000000000,  0.00000000000000 ]
      - [ -0.00000000000000,  0.00000000000000 ]
      - [ -0.31430003011765,  0.00000000000000 ]
    - # atom 9
      - [ -0.00000000000000,  0.00000000000000 ]
      - [ -0.00000000000000,  0.00000000000000 ]
      - [  0.15009904490240,  0.00000000000000 ]
    - # atom 10
      - [  0.00000000000000,  0.00000000000000 ]
      - [  0.00000000000000,  0.00000000000000 ]
      - [ -0.31430003011765,  0.00000000000000 ]
    - # atom 11
      - [  0.00000000000000,  0.00000000000000 ]
      - [ -0.00000000000000,  0.00000000000000 ]
      - [  0.15009904490239,  0.00000000000000 ]
    - # atom 12
      - [ -0.00000000000000,  0.00000000000000 ]
      - [ -0.00000000000000,  0.00000000000000 ]
      - [  0.16516613330866,  0.00000000000000 ]
  - # 8
    frequency:    11.8375881388
    eigenvector:
    - # atom 1
      - [ -0.00000000000000,  0.00000000000000 ]
      - [  0.00000000000000,  0.00000000000000 ]
      - [ -0.41219200808529,  0.00000000000000 ]
    - # atom 2
      - [  0.00000000000000,  0.00000000000000 ]
      - [ -0.00000000000000,  0.00000000000000 ]
      - [  0.42555820906156,  0.00000000000000 ]
    - # atom 3
      - [ -0.00000000000000,  0.00000000000000 ]
      - [  0.00000000000000,  0.00000000000000 ]
      - [ -0.01337799253083,  0.00000000000000 ]
    - # atom 4
      - [ -0.00000000000000,  0.00000000000000 ]
      - [  0.00000000000000,  0.00000000000000 ]
      - [  0.42555820906156,  0.00000000000000 ]
    - # atom 5
      - [  0.00000000000000,  0.00000000000000 ]
      - [  0.00000000000000,  0.00000000000000 ]
      - [ -0.41219200808529,  0.00000000000000 ]
    - # atom 6
      - [  0.00000000000000,  0.00000000000000 ]
      - [ -0.00000000000000,  0.00000000000000 ]
      - [ -0.01337799253082,  0.00000000000000 ]
    - # atom 7
      - [ -0.00000000000000,  0.00000000000000 ]
      - [ -0.00000000000000,  0.00000000000000 ]
      - [ -0.26831272638940,  0.00000000000000 ]
    - # atom 8
      - [ -0.00000000000000,  0.00000000000000 ]
      - [  0.00000000000000,  0.00000000000000 ]
      - [ -0.00868770917708,  0.00000000000000 ]
    - # atom 9
      - [  0.00000000000000,  0.00000000000000 ]
      - [ -0.00000000000000,  0.00000000000000 ]
      - [  0.27704113964088,  0.00000000000000 ]
    - # atom 10
      - [  0.00000000000000,  0.00000000000000 ]
      - [ -0.00000000000000,  0.00000000000000 ]
      - [ -0.00868770917708,  0.00000000000000 ]
    - # atom 11
      - [ -0.00000000000000,  0.00000000000000 ]
      - [  0.00000000000000,  0.00000000000000 ]
      - [  0.27704113964088,  0.00000000000000 ]
    - # atom 12
      - [  0.00000000000000,  0.00000000000000 ]
      - [  0.00000000000000,  0.00000000000000 ]
      - [ -0.26831272638940,  0.00000000000000 ]
  - # 9
    frequency:    17.9950649310
    eigenvector:
    - # atom 1
      - [ -0.30789331117456,  0.00000000000000 ]
      - [ -0.03795608275397,  0.00000000000000 ]
      - [ -0.00000000000000,  0.00000000000000 ]
    - # atom 2
      - [ -0.31762107261652,  0.00000000000000 ]
      - [  0.03221629982371,  0.00000000000000 ]
      - [  0.00000000000000,  0.00000000000000 ]
    - # atom 3
      - [  0.00009419900946,  0.00000000000000 ]
      - [ -0.50653523551516,  0.00000000000000 ]
      - [  0.00000000000000,  0.00000000000000 ]
    - # atom 4
      - [  0.31762107261652,  0.00000000000000 ]
      - [ -0.03221629982371,  0.00000000000000 ]
      - [  0.00000000000000,  0.00000000000000 ]
    - # atom 5
      - [  0.30789331117456,  0.00000000000000 ]
      - [  0.03795608275397,  0.00000000000000 ]
      - [  0.00000000000000,  0.00000000000000 ]
    - # atom 6
      - [ -0.00009419900946,  0.00000000000000 ]
      - [  0.50653523551516,  0.00000000000000 ]
      - [  0.00000000000000,  0.00000000000000 ]
    - # atom 7
      - [ -0.01969609526272,  0.00000000000000 ]
      - [  0.10686765015005,  0.00000000000000 ]
      - [ -0.00000000000000,  0.00000000000000 ]
    - # atom 8
      - [ -0.00241156891350,  0.00000000000000 ]
      - [ -0.14595028987651,  0.00000000000000 ]
      - [  0.00000000000000,  0.00000000000000 ]
    - # atom 9
      - [ -0.02523185173276,  0.00000000000000 ]
      - [ -0.10728222285624,  0.00000000000000 ]
      - [  0.00000000000000,  0.00000000000000 ]
    - # atom 10
      - [  0.00241156891350,  0.00000000000000 ]
      - [  0.14595028987650,  0.00000000000000 ]
      - [  0.00000000000000,  0.00000000000000 ]
    - # atom 11
      - [  0.02523185173276,  0.00000000000000 ]
      - [  0.10728222285624,  0.00000000000000 ]
      - [  0.00000000000000,  0.00000000000000 ]
    - # atom 12
      - [  0.01969609526272,  0.00000000000000 ]
      - [ -0.10686765015005,  0.00000000000000 ]
      - [ -0.00000000000000,  0.00000000000000 ]
  - # 10
    frequency:    17.9974854427
    eigenvector:
    - # atom 1
      - [  0.32895515297570,  0.00000000000000 ]
      - [ -0.31437348355081,  0.00000000000000 ]
      - [ -0.00000000000000,  0.00000000000000 ]
    - # atom 2
      - [ -0.32303453295544,  0.00000000000000 ]
      - [ -0.31114592751888,  0.00000000000000 ]
      - [  0.00000000000000,  0.00000000000000 ]
    - # atom 3
      - [  0.21568487819788,  0.00000000000000 ]
      - [  0.00640936161558,  0.00000000000000 ]
      - [  0.00000000000000,  0.00000000000000 ]
    - # atom 4
      - [  0.32303453295545,  0.00000000000000 ]
      - [  0.31114592751887,  0.00000000000000 ]
      - [  0.00000000000000,  0.00000000000000 ]
    - # atom 5
      - [ -0.32895515297570,  0.00000000000000 ]
      - [  0.31437348355081,  0.00000000000000 ]
      - [  0.00000000000000,  0.00000000000000 ]
    - # atom 6
      - [ -0.21568487819787,  0.00000000000000 ]
      - [ -0.00640936161558,  0.00000000000000 ]
      - [  0.00000000000000,  0.00000000000000 ]
    - # atom 7
      - [  0.13322850884350,  0.00000000000000 ]
      - [ -0.02501353487329,  0.00000000000000 ]
      - [ -0.00000000000000,  0.00000000000000 ]
    - # atom 8
      - [ -0.09396515284742,  0.00000000000000 ]
      - [  0.00284703686276,  0.00000000000000 ]
      - [  0.00000000000000,  0.00000000000000 ]
    - # atom 9
      - [ -0.13275787618557,  0.00000000000000 ]
      - [ -0.01989859604659,  0.00000000000000 ]
      - [  0.00000000000000,  0.00000000000000 ]
    - # atom 10
      - [  0.09396515284743,  0.00000000000000 ]
      - [ -0.00284703686276,  0.00000000000000 ]
      - [  0.00000000000000,  0.00000000000000 ]
    - # atom 11
      - [  0.13275787618558,  0.00000000000000 ]
      - [  0.01989859604659,  0.00000000000000 ]
      - [  0.00000000000000,  0.00000000000000 ]
    - # atom 12
      - [ -0.13322850884350,  0.00000000000000 ]
      - [  0.02501353487329,  0.00000000000000 ]
      - [  0.00000000000000,  0.00000000000000 ]
  - # 11
    frequency:    19.8177386062
    eigenvector:
    - # atom 1
      - [  0.00000000000000,  0.00000000000000 ]
      - [ -0.00000000000000,  0.00000000000000 ]
      - [  0.11402632634363,  0.00000000000000 ]
    - # atom 2
      - [ -0.00000000000000,  0.00000000000000 ]
      - [ -0.00000000000000,  0.00000000000000 ]
      - [  0.11406283310874,  0.00000000000000 ]
    - # atom 3
      - [  0.00000000000000,  0.00000000000000 ]
      - [  0.00000000000000,  0.00000000000000 ]
      - [  0.11269504828760,  0.00000000000000 ]
    - # atom 4
      - [ -0.00000000000000,  0.00000000000000 ]
      - [  0.00000000000000,  0.00000000000000 ]
      - [  0.11406283310874,  0.00000000000000 ]
    - # atom 5
      - [ -0.00000000000000,  0.00000000000000 ]
      - [ -0.00000000000000,  0.00000000000000 ]
      - [  0.11402632634363,  0.00000000000000 ]
    - # atom 6
      - [ -0.00000000000000,  0.00000000000000 ]
      - [ -0.00000000000000,  0.00000000000000 ]
      - [  0.11269504828760,  0.00000000000000 ]
    - # atom 7
      - [  0.00000000000000,  0.00000000000000 ]
      - [ -0.00000000000000,  0.00000000000000 ]
      - [ -0.39236532025062,  0.00000000000000 ]
    - # atom 8
      - [  0.00000000000000,  0.00000000000000 ]
      - [  0.00000000000000,  0.00000000000000 ]
      - [ -0.39161147528859,  0.00000000000000 ]
    - # atom 9
      - [  0.00000000000000,  0.00000000000000 ]
      - [ -0.00000000000000,  0.00000000000000 ]
      - [ -0.39239954253562,  0.00000000000000 ]
    - # atom 10
      - [ -0.00000000000000,  0.00000000000000 ]
      - [ -0.00000000000000,  0.00000000000000 ]
      - [ -0.39161147528859,  0.00000000000000 ]
    - # atom 11
      - [ -0.00000000000000,  0.00000000000000 ]
      - [ -0.00000000000000,  0.00000000000000 ]
      - [ -0.39239954253562,  0.00000000000000 ]
    - # atom 12
      - [ -0.00000000000000,  0.00000000000000 ]
      - [ -0.00000000000000,  0.00000000000000 ]
      - [ -0.39236532025062,  0.00000000000000 ]
  - # 12
    frequency:    21.0893121021
    eigenvector:
    - # atom 1
      - [  0.00000000000000,  0.00000000000000 ]
      - [ -0.00000000000000,  0.00000000000000 ]
      - [  0.36301958164213,  0.00000000000000 ]
    - # atom 2
      - [ -0.00000000000000,  0.00000000000000 ]
      - [ -0.00000000000000,  0.00000000000000 ]
      - [ -0.36301767503140,  0.00000000000000 ]
    - # atom 3
      - [  0.00000000000000,  0.00000000000000 ]
      - [ -0.00000000000000,  0.00000000000000 ]
      - [ -0.36327835908453,  0.00000000000000 ]
    - # atom 4
      - [  0.00000000000000,  0.00000000000000 ]
      - [ -0.00000000000000,  0.00000000000000 ]
      - [  0.36301767503139,  0.00000000000000 ]
    - # atom 5
      - [ -0.00000000000000,  0.00000000000000 ]
      - [ -0.00000000000000,  0.00000000000000 ]
      - [ -0.36301958164213,  0.00000000000000 ]
    - # atom 6
      - [ -0.00000000000000,  0.00000000000000 ]
      - [  0.00000000000000,  0.00000000000000 ]
      - [  0.36327835908452,  0.00000000000000 ]
    - # atom 7
      - [ -0.00000000000000,  0.00000000000000 ]
      - [ -0.00000000000000,  0.00000000000000 ]
      - [  0.18683006755032,  0.00000000000000 ]
    - # atom 8
      - [ -0.00000000000000,  0.00000000000000 ]
      - [ -0.00000000000000,  0.00000000000000 ]
      - [ -0.18613098403140,  0.00000000000000 ]
    - # atom 9
      - [  0.00000000000000,  0.00000000000000 ]
      - [ -0.00000000000000,  0.00000000000000 ]
      - [ -0.18685172576851,  0.00000000000000 ]
    - # atom 10
      - [ -0.00000000000000,  0.00000000000000 ]
      - [  0.00000000000000,  0.00000000000000 ]
      - [  0.18613098403141,  0.00000000000000 ]
    - # atom 11
      - [  0.00000000000000,  0.00000000000000 ]
      - [ -0.00000000000000,  0.00000000000000 ]
      - [  0.18685172576851,  0.00000000000000 ]
    - # atom 12
      - [ -0.00000000000000,  0.00000000000000 ]
      - [ -0.00000000000000,  0.00000000000000 ]
      - [ -0.18683006755032,  0.00000000000000 ]
  - # 13
    frequency:    25.0126085111
    eigenvector:
    - # atom 1
      - [ -0.00000000000000,  0.00000000000000 ]
      - [ -0.00000000000000,  0.00000000000000 ]
      - [ -0.22774524105499,  0.00000000000000 ]
    - # atom 2
      - [  0.00000000000000,  0.00000000000000 ]
      - [  0.00000000000000,  0.00000000000000 ]
      - [ -0.23092973135337,  0.00000000000000 ]
    - # atom 3
      - [ -0.00000000000000,  0.00000000000000 ]
      - [ -0.00000000000000,  0.00000000000000 ]
      - [  0.00309465182526,  0.00000000000000 ]
    - # atom 4
      - [  0.00000000000000,  0.00000000000000 ]
      - [  0.00000000000000,  0.00000000000000 ]
      - [  0.23092973135337,  0.00000000000000 ]
    - # atom 5
      - [ -0.00000000000000,  0.00000000000000 ]
      - [ -0.00000000000000,  0.00000000000000 ]
      - [  0.22774524105499,  0.00000000000000 ]
    - # atom 6
      - [ -0.00000000000000,  0.00000000000000 ]
      - [  0.00000000000000,  0.00000000000000 ]
      - [ -0.00309465182526,  0.00000000000000 ]
    - # atom 7
      - [ -0.00000000000000,  0.00000000000000 ]
      - [ -0.00000000000000,  0.00000000000000 ]
      - [  0.44120409251451,  0.00000000000000 ]
    - # atom 8
      - [ -0.00000000000000,  0.00000000000000 ]
      - [ -0.00000000000000,  0.00000000000000 ]
      - [ -0.00602402405333,  0.00000000000000 ]
    - # atom 9
      - [ -0.00000000000000,  0.00000000000000 ]
      - [  0.00000000000000,  0.00000000000000 ]
      - [  0.44732163748985,  0.00000000000000 ]
    - # atom 10
      - [  0.00000000000000,  0.00000000000000 ]
      - [  0.00000000000000,  0.00000000000000 ]
      - [  0.00602402405334,  0.00000000000000 ]
    - # atom 11
      - [  0.00000000000000,  0.00000000000000 ]
      - [ -0.00000000000000,  0.00000000000000 ]
      - [ -0.44732163748985,  0.00000000000000 ]
    - # atom 12
      - [ -0.00000000000000,  0.00000000000000 ]
      - [ -0.00000000000000,  0.00000000000000 ]
      - [ -0.44120409251451,  0.00000000000000 ]
  - # 14
    frequency:    25.0318003600
    eigenvector:
    - # atom 1
      - [ -0.00000000000000,  0.00000000000000 ]
      - [  0.00000000000000,  0.00000000000000 ]
      - [ -0.13587018558931,  0.00000000000000 ]
    - # atom 2
      - [ -0.00000000000000,  0.00000000000000 ]
      - [ -0.00000000000000,  0.00000000000000 ]
      - [  0.13045784298486,  0.00000000000000 ]
    - # atom 3
      - [ -0.00000000000000,  0.00000000000000 ]
      - [  0.00000000000000,  0.00000000000000 ]
      - [ -0.26387019222626,  0.00000000000000 ]
    - # atom 4
      - [  0.00000000000000,  0.00000000000000 ]
      - [  0.00000000000000,  0.00000000000000 ]
      - [ -0.13045784298486,  0.00000000000000 ]
    - # atom 5
      - [  0.00000000000000,  0.00000000000000 ]
      - [ -0.00000000000000,  0.00000000000000 ]
      - [  0.13587018558930,  0.00000000000000 ]
    - # atom 6
      - [  0.00000000000000,  0.00000000000000 ]
      - [  0.00000000000000,  0.00000000000000 ]
      - [  0.26387019222625,  0.00000000000000 ]
    - # atom 7
      - [ -0.00000000000000,  0.00000000000000 ]
      - [  0.00000000000000,  0.00000000000000 ]
      - [  0.26259164349833,  0.00000000000000 ]
    - # atom 8
      - [ -0.00000000000000,  0.00000000000000 ]
      - [  0.00000000000000,  0.00000000000000 ]
      - [  0.51223231707054,  0.00000000000000 ]
    - # atom 9
      - [ -0.00000000000000,  0.00000000000000 ]
      - [  0.00000000000000,  0.00000000000000 ]
      - [ -0.25210364463755,  0.00000000000000 ]
    - # atom 10
      - [  0.00000000000000,  0.00000000000000 ]
      - [ -0.00000000000000,  0.00000000000000 ]
      - [ -0.51223231707054,  0.00000000000000 ]
    - # atom 11
      - [  0.00000000000000,  0.00000000000000 ]
      - [  0.00000000000000,  0.00000000000000 ]
      - [  0.25210364463755,  0.00000000000000 ]
    - # atom 12
      - [  0.00000000000000,  0.00000000000000 ]