mesh: [     1,     1,     1 ]
nqpoint: 1      
reciprocal_lattice:
- [   0.05177567,   0.00000000,   0.00000000 ] # a*
- [   0.00000000,   0.05009265,   0.00000000 ] # b*
- [   0.00000000,   0.00000000,   0.06666667 ] # c*
natom:   12     
lattice:
- [    19.314090000000000,     0.000000000000000,     0.000000000000000 ] # a
- [     0.000000000000000,    19.963010000000001,     0.000000000000000 ] # b
- [     0.000000000000000,     0.000000000000000,    15.000000000000000 ] # c
points:
- symbol: C  # 1
  coordinates: [  0.437567458451965,  0.535395519621960,  0.500000000000000 ]
  mass: 12.010700
- symbol: C  # 2
  coordinates: [  0.437100440715855,  0.465387025480381,  0.500000000000000 ]
  mass: 12.010700
- symbol: C  # 3
  coordinates: [  0.500466680011005,  0.570008249145484,  0.500000000000000 ]
  mass: 12.010700
- symbol: C  # 4
  coordinates: [  0.562899559284145,  0.534612974519620,  0.500000000000000 ]
  mass: 12.010700
- symbol: C  # 5
  coordinates: [  0.562432541548035,  0.464604981304501,  0.500000000000000 ]
  mass: 12.010700
- symbol: C  # 6
  coordinates: [  0.499533319988995,  0.429991750854516,  0.500000000000000 ]
  mass: 12.010700
- symbol: H  # 7
  coordinates: [  0.388837373637245,  0.563021993880583,  0.500000000000000 ]
  mass: 1.007940
- symbol: H  # 8
  coordinates: [  0.500831270639160,  0.624651202649329,  0.500000000000000 ]
  mass: 1.007940
- symbol: H  # 9
  coordinates: [  0.388006318749812,  0.438371016437240,  0.500000000000000 ]
  mass: 1.007940
- symbol: H  # 10
  coordinates: [  0.499168729360840,  0.375348797350671,  0.500000000000000 ]
  mass: 1.007940
- symbol: H  # 11
  coordinates: [  0.611993681250188,  0.561629484489221,  0.500000000000000 ]
  mass: 1.007940
- symbol: H  # 12
  coordinates: [  0.611162626362755,  0.436978006119417,  0.500000000000000 ]
  mass: 1.007940
phonon:
- q-position: [    0.0000000,    0.0000000,    0.0000000 ]
  weight: 1    
  band:
  - # 1
    frequency:    -0.3335070100
    eigenvector:
    - # atom 1
      - [  0.00000000000000,  0.00000000000000 ]
      - [  0.00000000000189,  0.00000000000000 ]
      - [  0.43828397061126,  0.00000000000000 ]
    - # atom 2
      - [ -0.00000000000118,  0.00000000000000 ]
      - [  0.00000000000190,  0.00000000000000 ]
      - [  0.45006878103028,  0.00000000000000 ]
    - # atom 3
      - [  0.00000000000058,  0.00000000000000 ]
      - [  0.00000000000087,  0.00000000000000 ]
      - [ -0.01180127548917,  0.00000000000000 ]
    - # atom 4
      - [ -0.00000000000001,  0.00000000000000 ]
      - [ -0.00000000000015,  0.00000000000000 ]
      - [ -0.45006878103421,  0.00000000000000 ]
    - # atom 5
      - [ -0.00000000000119,  0.00000000000000 ]
      - [ -0.00000000000014,  0.00000000000000 ]
      - [ -0.43828397061519,  0.00000000000000 ]
    - # atom 6
      - [ -0.00000000000178,  0.00000000000000 ]
      - [  0.00000000000088,  0.00000000000000 ]
      - [  0.01180127548526,  0.00000000000000 ]
    - # atom 7
      - [  0.00000000000013,  0.00000000000000 ]
      - [  0.00000000000078,  0.00000000000000 ]
      - [  0.22624847975800,  0.00000000000000 ]
    - # atom 8
      - [  0.00000000000044,  0.00000000000000 ]
      - [  0.00000000000025,  0.00000000000000 ]
      - [ -0.00608549551817,  0.00000000000000 ]
    - # atom 9
      - [ -0.00000000000047,  0.00000000000000 ]
      - [  0.00000000000078,  0.00000000000000 ]
      - [  0.23233720212551,  0.00000000000000 ]
    - # atom 10
      - [ -0.00000000000078,  0.00000000000000 ]
      - [  0.00000000000026,  0.00000000000000 ]
      - [  0.00608549551704,  0.00000000000000 ]
    - # atom 11
      - [  0.00000000000013,  0.00000000000000 ]
      - [ -0.00000000000027,  0.00000000000000 ]
      - [ -0.23233720212665,  0.00000000000000 ]
    - # atom 12
      - [ -0.00000000000048,  0.00000000000000 ]
      - [ -0.00000000000027,  0.00000000000000 ]
      - [ -0.22624847975913,  0.00000000000000 ]
  - # 2
    frequency:    -0.2174988539
    eigenvector:
    - # atom 1
      - [ -0.18338772208410,  0.00000000000000 ]
      - [ -0.31306174254877,  0.00000000000000 ]
      - [  0.00000000000236,  0.00000000000000 ]
    - # atom 2
      - [  0.17940093602323,  0.00000000000000 ]
      - [ -0.31536466421018,  0.00000000000000 ]
      - [  0.00000000000326,  0.00000000000000 ]
    - # atom 3
      - [ -0.36280718063323,  0.00000000000000 ]
      - [  0.00231179008714,  0.00000000000000 ]
      - [  0.00000000000048,  0.00000000000000 ]
    - # atom 4
      - [ -0.17940093600977,  0.00000000000000 ]
      - [  0.31536466421481,  0.00000000000000 ]
      - [ -0.00000000000049,  0.00000000000000 ]
    - # atom 5
      - [  0.18338772209756,  0.00000000000000 ]
      - [  0.31306174255339,  0.00000000000000 ]
      - [  0.00000000000041,  0.00000000000000 ]
    - # atom 6
      - [  0.36280718064669,  0.00000000000000 ]
      - [ -0.00231179008252,  0.00000000000000 ]
      - [  0.00000000000229,  0.00000000000000 ]
    - # atom 7
      - [ -0.09461123406954,  0.00000000000000 ]
      - [ -0.16149545755037,  0.00000000000000 ]
      - [  0.00000000000090,  0.00000000000000 ]
    - # atom 8
      - [ -0.18713829628689,  0.00000000000000 ]
      - [  0.00119656208069,  0.00000000000000 ]
      - [ -0.00000000000006,  0.00000000000000 ]
    - # atom 9
      - [  0.09254708205207,  0.00000000000000 ]
      - [ -0.16269026475299,  0.00000000000000 ]
      - [  0.00000000000137,  0.00000000000000 ]
    - # atom 10
      - [  0.18713829629078,  0.00000000000000 ]
      - [ -0.00119656207935,  0.00000000000000 ]
      - [  0.00000000000087,  0.00000000000000 ]
    - # atom 11
      - [ -0.09254708204817,  0.00000000000000 ]
      - [  0.16269026475433,  0.00000000000000 ]
      - [ -0.00000000000057,  0.00000000000000 ]
    - # atom 12
      - [  0.09461123407344,  0.00000000000000 ]
      - [  0.16149545755171,  0.00000000000000 ]
      - [ -0.00000000000010,  0.00000000000000 ]
  - # 3
    frequency:    -0.1578043703
    eigenvector:
    - # atom 1
      - [  0.00000000000000,  0.00000000000000 ]
      - [  0.00000000001037,  0.00000000000000 ]
      - [  0.26662174952909,  0.00000000000000 ]
    - # atom 2
      - [  0.00000000000061,  0.00000000000000 ]
      - [  0.00000000001037,  0.00000000000000 ]
      - [ -0.24619225852426,  0.00000000000000 ]
    - # atom 3
      - [ -0.00000000000030,  0.00000000000000 ]
      - [  0.00000000001090,  0.00000000000000 ]
      - [  0.51302645190681,  0.00000000000000 ]
    - # atom 4
      - [  0.00000000000001,  0.00000000000000 ]
      - [  0.00000000001143,  0.00000000000000 ]
      - [  0.24619225850798,  0.00000000000000 ]
    - # atom 5
      - [  0.00000000000062,  0.00000000000000 ]
      - [  0.00000000001142,  0.00000000000000 ]
      - [ -0.26662174954538,  0.00000000000000 ]
    - # atom 6
      - [  0.00000000000092,  0.00000000000000 ]
      - [  0.00000000001089,  0.00000000000000 ]
      - [ -0.51302645192308,  0.00000000000000 ]
    - # atom 7
      - [ -0.00000000000007,  0.00000000000000 ]
      - [  0.00000000000289,  0.00000000000000 ]
      - [  0.13763221076453,  0.00000000000000 ]
    - # atom 8
      - [ -0.00000000000023,  0.00000000000000 ]
      - [  0.00000000000316,  0.00000000000000 ]
      - [  0.26459835053062,  0.00000000000000 ]
    - # atom 9
      - [  0.00000000000025,  0.00000000000000 ]
      - [  0.00000000000288,  0.00000000000000 ]
      - [ -0.12708722048753,  0.00000000000000 ]
    - # atom 10
      - [  0.00000000000040,  0.00000000000000 ]
      - [  0.00000000000316,  0.00000000000000 ]
      - [ -0.26459835053533,  0.00000000000000 ]
    - # atom 11
      - [ -0.00000000000007,  0.00000000000000 ]
      - [  0.00000000000343,  0.00000000000000 ]
      - [  0.12708722048282,  0.00000000000000 ]
    - # atom 12
      - [  0.00000000000025,  0.00000000000000 ]
      - [  0.00000000000343,  0.00000000000000 ]
      - [ -0.13763221076925,  0.00000000000000 ]
  - # 4
    frequency:     0.0000006747
    eigenvector:
    - # atom 1
      - [  0.00000000000000,  0.00000000000000 ]
      - [ -0.00470096605906,  0.00000000000000 ]
      - [ -0.39209789845206,  0.00000000000000 ]
    - # atom 2
      - [  0.00000000000130,  0.00000000000000 ]
      - [ -0.00470096605906,  0.00000000000000 ]
      - [ -0.39209789844164,  0.00000000000000 ]
    - # atom 3
      - [ -0.00000000000065,  0.00000000000000 ]
      - [ -0.00470096605792,  0.00000000000000 ]
      - [ -0.39209789845485,  0.00000000000000 ]
    - # atom 4
      - [  0.00000000000002,  0.00000000000000 ]
      - [ -0.00470096605679,  0.00000000000000 ]
      - [ -0.39209789844722,  0.00000000000000 ]
    - # atom 5
      - [  0.00000000000132,  0.00000000000000 ]
      - [ -0.00470096605680,  0.00000000000000 ]
      - [ -0.39209789843681,  0.00000000000000 ]
    - # atom 6
      - [  0.00000000000197,  0.00000000000000 ]
      - [ -0.00470096605793,  0.00000000000000 ]
      - [ -0.39209789843401,  0.00000000000000 ]
    - # atom 7
      - [ -0.00000000000015,  0.00000000000000 ]
      - [ -0.00136182184433,  0.00000000000000 ]
      - [ -0.11358675566460,  0.00000000000000 ]
    - # atom 8
      - [ -0.00000000000048,  0.00000000000000 ]
      - [ -0.00136182184375,  0.00000000000000 ]
      - [ -0.11358675566604,  0.00000000000000 ]
    - # atom 9
      - [  0.00000000000052,  0.00000000000000 ]
      - [ -0.00136182184434,  0.00000000000000 ]
      - [ -0.11358675565922,  0.00000000000000 ]
    - # atom 10
      - [  0.00000000000087,  0.00000000000000 ]
      - [ -0.00136182184376,  0.00000000000000 ]
      - [ -0.11358675565529,  0.00000000000000 ]
    - # atom 11
      - [ -0.00000000000014,  0.00000000000000 ]
      - [ -0.00136182184316,  0.00000000000000 ]
      - [ -0.11358675566210,  0.00000000000000 ]
    - # atom 12
      - [  0.00000000000053,  0.00000000000000 ]
      - [ -0.00136182184317,  0.00000000000000 ]
      - [ -0.11358675565673,  0.00000000000000 ]
  - # 5
    frequency:     0.0000012859
    eigenvector:
    - # atom 1
      - [  0.39212607800156,  0.00000000000000 ]
      - [  0.00000000000043,  0.00000000000000 ]
      - [  0.00000000000118,  0.00000000000000 ]
    - # atom 2
      - [  0.39212607799533,  0.00000000000000 ]
      - [  0.00000000000047,  0.00000000000000 ]
      - [  0.00000000000160,  0.00000000000000 ]
    - # atom 3
      - [  0.39212607800464,  0.00000000000000 ]
      - [ -0.00000000000498,  0.00000000000000 ]
      - [  0.00000000000030,  0.00000000000000 ]
    - # atom 4
      - [  0.39212607800149,  0.00000000000000 ]
      - [ -0.00000000001035,  0.00000000000000 ]
      - [ -0.00000000000016,  0.00000000000000 ]
    - # atom 5
      - [  0.39212607799527,  0.00000000000000 ]
      - [ -0.00000000001031,  0.00000000000000 ]
      - [  0.00000000000026,  0.00000000000000 ]
    - # atom 6
      - [  0.39212607799219,  0.00000000000000 ]
      - [ -0.00000000000490,  0.00000000000000 ]
      - [  0.00000000000114,  0.00000000000000 ]
    - # atom 7
      - [  0.11359491899120,  0.00000000000000 ]
      - [  0.00000000000134,  0.00000000000000 ]
      - [  0.00000000000044,  0.00000000000000 ]
    - # atom 8
      - [  0.11359491899279,  0.00000000000000 ]
      - [ -0.00000000000145,  0.00000000000000 ]
      - [ -0.00000000000001,  0.00000000000000 ]
    - # atom 9
      - [  0.11359491898799,  0.00000000000000 ]
      - [  0.00000000000136,  0.00000000000000 ]
      - [  0.00000000000066,  0.00000000000000 ]
    - # atom 10
      - [  0.11359491898637,  0.00000000000000 ]
      - [ -0.00000000000141,  0.00000000000000 ]
      - [  0.00000000000043,  0.00000000000000 ]
    - # atom 11
      - [  0.11359491899117,  0.00000000000000 ]
      - [ -0.00000000000422,  0.00000000000000 ]
      - [ -0.00000000000024,  0.00000000000000 ]
    - # atom 12
      - [  0.11359491898796,  0.00000000000000 ]
      - [ -0.00000000000420,  0.00000000000000 ]
      - [ -0.00000000000003,  0.00000000000000 ]
  - # 6
    frequency:     0.0000013515
    eigenvector:
    - # atom 1
      - [ -0.00000000000602,  0.00000000000000 ]
      - [ -0.39209789844626,  0.00000000000000 ]
      - [  0.00470096606641,  0.00000000000000 ]
    - # atom 2
      - [ -0.00000000000390,  0.00000000000000 ]
      - [ -0.39209789844628,  0.00000000000000 ]
      - [  0.00470096605206,  0.00000000000000 ]
    - # atom 3
      - [ -0.00000000000707,  0.00000000000000 ]
      - [ -0.39209789844442,  0.00000000000000 ]
      - [  0.00470096607228,  0.00000000000000 ]
    - # atom 4
      - [ -0.00000000000600,  0.00000000000000 ]
      - [ -0.39209789844259,  0.00000000000000 ]
      - [  0.00470096606380,  0.00000000000000 ]
    - # atom 5
      - [ -0.00000000000388,  0.00000000000000 ]
      - [ -0.39209789844260,  0.00000000000000 ]
      - [  0.00470096604944,  0.00000000000000 ]
    - # atom 6
      - [ -0.00000000000283,  0.00000000000000 ]
      - [ -0.39209789844444,  0.00000000000000 ]
      - [  0.00470096604357,  0.00000000000000 ]
    - # atom 7
      - [ -0.00000000000199,  0.00000000000000 ]
      - [ -0.11358675566161,  0.00000000000000 ]
      - [  0.00136182184813,  0.00000000000000 ]
    - # atom 8
      - [ -0.00000000000253,  0.00000000000000 ]
      - [ -0.11358675566066,  0.00000000000000 ]
      - [  0.00136182185116,  0.00000000000000 ]
    - # atom 9
      - [ -0.00000000000089,  0.00000000000000 ]
      - [ -0.11358675566161,  0.00000000000000 ]
      - [  0.00136182184072,  0.00000000000000 ]
    - # atom 10
      - [ -0.00000000000034,  0.00000000000000 ]
      - [ -0.11358675566067,  0.00000000000000 ]
      - [  0.00136182183634,  0.00000000000000 ]
    - # atom 11
      - [ -0.00000000000198,  0.00000000000000 ]
      - [ -0.11358675565971,  0.00000000000000 ]
      - [  0.00136182184678,  0.00000000000000 ]
    - # atom 12
      - [ -0.00000000000088,  0.00000000000000 ]
      - [ -0.11358675565972,  0.00000000000000 ]
      - [  0.00136182183937,  0.00000000000000 ]
  - # 7
    frequency:    11.8353231638
    eigenvector:
    - # atom 1
      - [  0.00000000000000,  0.00000000000000 ]
      - [  0.00000000000000,  0.00000000000000 ]
      - [  0.25340549494286,  0.00000000000000 ]
    - # atom 2
      - [ -0.00000000000000,  0.00000000000000 ]
      - [  0.00000000000000,  0.00000000000000 ]
      - [  0.23023833543838,  0.00000000000000 ]
    - # atom 3
      - [  0.00000000000000,  0.00000000000000 ]
      - [  0.00000000000000,  0.00000000000000 ]
      - [ -0.48392342392431,  0.00000000000000 ]
    - # atom 4
      - [  0.00000000000000,  0.00000000000000 ]
      - [  0.00000000000000,  0.00000000000000 ]
      - [  0.23023833543838,  0.00000000000000 ]
    - # atom 5
      - [ -0.00000000000000,  0.00000000000000 ]
      - [  0.00000000000000,  0.00000000000000 ]
      - [  0.25340549494285,  0.00000000000000 ]
    - # atom 6
      - [ -0.00000000000000,  0.00000000000000 ]
      - [  0.00000000000000,  0.00000000000000 ]
      - [ -0.48392342392431,  0.00000000000000 ]
    - # atom 7
      - [ -0.00000000000000,  0.00000000000000 ]
      - [  0.00000000000000,  0.00000000000000 ]
      - [  0.16516613331139,  0.00000000000000 ]
    - # atom 8
      - [  0.00000000000000,  0.00000000000000 ]
      - [  0.00000000000000,  0.00000000000000 ]
      - [ -0.31430003011757,  0.00000000000000 ]
    - # atom 9
      - [ -0.00000000000000,  0.00000000000000 ]
      - [  0.00000000000000,  0.00000000000000 ]
      - [  0.15009904489957,  0.00000000000000 ]
    - # atom 10
      - [ -0.00000000000000,  0.00000000000000 ]
      - [  0.00000000000000,  0.00000000000000 ]
      - [ -0.31430003011757,  0.00000000000000 ]
    - # atom 11
      - [  0.00000000000000,  0.00000000000000 ]
      - [  0.00000000000000,  0.00000000000000 ]
      - [  0.15009904489957,  0.00000000000000 ]
    - # atom 12
      - [ -0.00000000000000,  0.00000000000000 ]
      - [  0.00000000000000,  0.00000000000000 ]
      - [  0.16516613331139,  0.00000000000000 ]
  - # 8
    frequency:    11.8375881388
    eigenvector:
    - # atom 1
      - [  0.00000000000000,  0.00000000000000 ]
      - [  0.00000000000000,  0.00000000000000 ]
      - [ -0.41219200808270,  0.00000000000000 ]
    - # atom 2
      - [ -0.00000000000000,  0.00000000000000 ]
      - [  0.00000000000000,  0.00000000000000 ]
      - [  0.42555820906392,  0.00000000000000 ]
    - # atom 3
      - [  0.00000000000000,  0.00000000000000 ]
      - [  0.00000000000000,  0.00000000000000 ]
      - [ -0.01337799253576,  0.00000000000000 ]
    - # atom 4
      - [  0.00000000000000,  0.00000000000000 ]
      - [  0.00000000000000,  0.00000000000000 ]
      - [  0.42555820906391,  0.00000000000000 ]
    - # atom 5
      - [  0.00000000000000,  0.00000000000000 ]
      - [  0.00000000000000,  0.00000000000000 ]
      - [ -0.41219200808270,  0.00000000000000 ]
    - # atom 6
      - [ -0.00000000000000,  0.00000000000000 ]
      - [  0.00000000000000,  0.00000000000000 ]
      - [ -0.01337799253575,  0.00000000000000 ]
    - # atom 7
      - [  0.00000000000000,  0.00000000000000 ]
      - [  0.00000000000000,  0.00000000000000 ]
      - [ -0.26831272638771,  0.00000000000000 ]
    - # atom 8
      - [  0.00000000000000,  0.00000000000000 ]
      - [  0.00000000000000,  0.00000000000000 ]
      - [ -0.00868770918029,  0.00000000000000 ]
    - # atom 9
      - [ -0.00000000000000,  0.00000000000000 ]
      - [  0.00000000000000,  0.00000000000000 ]
      - [  0.27704113964242,  0.00000000000000 ]
    - # atom 10
      - [  0.00000000000000,  0.00000000000000 ]
      - [  0.00000000000000,  0.00000000000000 ]
      - [ -0.00868770918028,  0.00000000000000 ]
    - # atom 11
      - [  0.00000000000000,  0.00000000000000 ]
      - [  0.00000000000000,  0.00000000000000 ]
      - [  0.27704113964241,  0.00000000000000 ]
    - # atom 12
      - [ -0.00000000000000,  0.00000000000000 ]
      - [  0.00000000000000,  0.00000000000000 ]
      - [ -0.26831272638771,  0.00000000000000 ]
  - # 9
    frequency:    17.9950649310
    eigenvector:
    - # atom 1
      - [  0.30789331117046,  0.00000000000000 ]
      - [  0.03795608275789,  0.00000000000000 ]
      - [ -0.00000000000000,  0.00000000000000 ]
    - # atom 2
      - [  0.31762107262055,  0.00000000000000 ]
      - [ -0.03221629981983,  0.00000000000000 ]
      - [  0.00000000000000,  0.00000000000000 ]
    - # atom 3
      - [ -0.00009419901215,  0.00000000000000 ]
      - [  0.50653523551508,  0.00000000000000 ]
      - [ -0.00000000000000,  0.00000000000000 ]
    - # atom 4
      - [ -0.31762107262055,  0.00000000000000 ]
      - [  0.03221629981983,  0.00000000000000 ]
      - [ -0.00000000000000,  0.00000000000000 ]
    - # atom 5
      - [ -0.30789331117046,  0.00000000000000 ]
      - [ -0.03795608275789,  0.00000000000000 ]
      - [  0.00000000000000,  0.00000000000000 ]
    - # atom 6
      - [  0.00009419901215,  0.00000000000000 ]
      - [ -0.50653523551508,  0.00000000000000 ]
      - [ -0.00000000000000,  0.00000000000000 ]
    - # atom 7
      - [  0.01969609526106,  0.00000000000000 ]
      - [ -0.10686765014974,  0.00000000000000 ]
      - [ -0.00000000000000,  0.00000000000000 ]
    - # atom 8
      - [  0.00241156891467,  0.00000000000000 ]
      - [  0.14595028987647,  0.00000000000000 ]
      - [  0.00000000000000,  0.00000000000000 ]
    - # atom 9
      - [  0.02523185173442,  0.00000000000000 ]
      - [  0.10728222285649,  0.00000000000000 ]
      - [  0.00000000000000,  0.00000000000000 ]
    - # atom 10
      - [ -0.00241156891468,  0.00000000000000 ]
      - [ -0.14595028987647,  0.00000000000000 ]
      - [ -0.00000000000000,  0.00000000000000 ]
    - # atom 11
      - [ -0.02523185173442,  0.00000000000000 ]
      - [ -0.10728222285649,  0.00000000000000 ]
      - [ -0.00000000000000,  0.00000000000000 ]
    - # atom 12
      - [ -0.01969609526106,  0.00000000000000 ]
      - [  0.10686765014974,  0.00000000000000 ]
      - [ -0.00000000000000,  0.00000000000000 ]
  - # 10
    frequency:    17.9974854427
    eigenvector:
    - # atom 1
      - [ -0.32895515297954,  0.00000000000000 ]
      - [  0.31437348355034,  0.00000000000000 ]
      - [ -0.00000000000000,  0.00000000000000 ]
    - # atom 2
      - [  0.32303453295148,  0.00000000000000 ]
      - [  0.31114592751928,  0.00000000000000 ]
      - [  0.00000000000000,  0.00000000000000 ]
    - # atom 3
      - [ -0.21568487819787,  0.00000000000000 ]
      - [ -0.00640936162189,  0.00000000000000 ]
      - [ -0.00000000000000,  0.00000000000000 ]
    - # atom 4
      - [ -0.32303453295148,  0.00000000000000 ]
      - [ -0.31114592751927,  0.00000000000000 ]
      - [ -0.00000000000000,  0.00000000000000 ]
    - # atom 5
      - [  0.32895515297954,  0.00000000000000 ]
      - [ -0.31437348355033,  0.00000000000000 ]
      - [ -0.00000000000000,  0.00000000000000 ]
    - # atom 6
      - [  0.21568487819787,  0.00000000000000 ]
      - [  0.00640936162189,  0.00000000000000 ]
      - [ -0.00000000000000,  0.00000000000000 ]
    - # atom 7
      - [ -0.13322850884375,  0.00000000000000 ]
      - [  0.02501353487462,  0.00000000000000 ]
      - [ -0.00000000000000,  0.00000000000000 ]
    - # atom 8
      - [  0.09396515284740,  0.00000000000000 ]
      - [ -0.00284703686458,  0.00000000000000 ]
      - [ -0.00000000000000,  0.00000000000000 ]
    - # atom 9
      - [  0.13275787618526,  0.00000000000000 ]
      - [  0.01989859604525,  0.00000000000000 ]
      - [  0.00000000000000,  0.00000000000000 ]
    - # atom 10
      - [ -0.09396515284739,  0.00000000000000 ]
      - [  0.00284703686458,  0.00000000000000 ]
      - [ -0.00000000000000,  0.00000000000000 ]
    - # atom 11
      - [ -0.13275787618526,  0.00000000000000 ]
      - [ -0.01989859604526,  0.00000000000000 ]
      - [ -0.00000000000000,  0.00000000000000 ]
    - # atom 12
      - [  0.13322850884375,  0.00000000000000 ]
      - [ -0.02501353487462,  0.00000000000000 ]
      - [ -0.00000000000000,  0.00000000000000 ]
  - # 11
    frequency:    19.8177386062
    eigenvector:
    - # atom 1
      - [ -0.00000000000000,  0.00000000000000 ]
      - [  0.00000000000000,  0.00000000000000 ]
      - [  0.11402632634363,  0.00000000000000 ]
    - # atom 2
      - [ -0.00000000000000,  0.00000000000000 ]
      - [  0.00000000000000,  0.00000000000000 ]
      - [  0.11406283310874,  0.00000000000000 ]
    - # atom 3
      - [ -0.00000000000000,  0.00000000000000 ]
      - [ -0.00000000000000,  0.00000000000000 ]
      - [  0.11269504828759,  0.00000000000000 ]
    - # atom 4
      - [  0.00000000000000,  0.00000000000000 ]
      - [  0.00000000000000,  0.00000000000000 ]
      - [  0.11406283310874,  0.00000000000000 ]
    - # atom 5
      - [  0.00000000000000,  0.00000000000000 ]
      - [ -0.00000000000000,  0.00000000000000 ]
      - [  0.11402632634363,  0.00000000000000 ]
    - # atom 6
      - [  0.00000000000000,  0.00000000000000 ]
      - [  0.00000000000000,  0.00000000000000 ]
      - [  0.11269504828760,  0.00000000000000 ]
    - # atom 7
      - [  0.00000000000000,  0.00000000000000 ]
      - [  0.00000000000000,  0.00000000000000 ]
      - [ -0.39236532025061,  0.00000000000000 ]
    - # atom 8
      - [ -0.00000000000000,  0.00000000000000 ]
      - [ -0.00000000000000,  0.00000000000000 ]
      - [ -0.39161147528860,  0.00000000000000 ]
    - # atom 9
      - [ -0.00000000000000,  0.00000000000000 ]
      - [ -0.00000000000000,  0.00000000000000 ]
      - [ -0.39239954253562,  0.00000000000000 ]
    - # atom 10
      - [  0.00000000000000,  0.00000000000000 ]
      - [  0.00000000000000,  0.00000000000000 ]
      - [ -0.39161147528859,  0.00000000000000 ]
    - # atom 11
      - [  0.00000000000000,  0.00000000000000 ]
      - [ -0.00000000000000,  0.00000000000000 ]
      - [ -0.39239954253562,  0.00000000000000 ]
    - # atom 12
      - [  0.00000000000000,  0.00000000000000 ]
      - [ -0.00000000000000,  0.00000000000000 ]
      - [ -0.39236532025062,  0.00000000000000 ]
  - # 12
    frequency:    21.0893121021
    eigenvector:
    - # atom 1
      - [ -0.00000000000000,  0.00000000000000 ]
      - [ -0.00000000000000,  0.00000000000000 ]
      - [ -0.36301958164213,  0.00000000000000 ]
    - # atom 2
      - [ -0.00000000000000,  0.00000000000000 ]
      - [  0.00000000000000,  0.00000000000000 ]
      - [  0.36301767503140,  0.00000000000000 ]
    - # atom 3
      - [  0.00000000000000,  0.00000000000000 ]
      - [ -0.00000000000000,  0.00000000000000 ]
      - [  0.36327835908452,  0.00000000000000 ]
    - # atom 4
      - [  0.00000000000000,  0.00000000000000 ]
      - [  0.00000000000000,  0.00000000000000 ]
      - [ -0.36301767503139,  0.00000000000000 ]
    - # atom 5
      - [  0.00000000000000,  0.00000000000000 ]
      - [  0.00000000000000,  0.00000000000000 ]
      - [  0.36301958164213,  0.00000000000000 ]
    - # atom 6
      - [ -0.00000000000000,  0.00000000000000 ]
      - [  0.00000000000000,  0.00000000000000 ]
      - [ -0.36327835908452,  0.00000000000000 ]
    - # atom 7
      - [  0.00000000000000,  0.00000000000000 ]
      - [  0.00000000000000,  0.00000000000000 ]
      - [ -0.18683006755032,  0.00000000000000 ]
    - # atom 8
      - [ -0.00000000000000,  0.00000000000000 ]
      - [ -0.00000000000000,  0.00000000000000 ]
      - [  0.18613098403140,  0.00000000000000 ]
    - # atom 9
      - [ -0.00000000000000,  0.00000000000000 ]
      - [ -0.00000000000000,  0.00000000000000 ]
      - [  0.18685172576851,  0.00000000000000 ]
    - # atom 10
      - [ -0.00000000000000,  0.00000000000000 ]
      - [  0.00000000000000,  0.00000000000000 ]
      - [ -0.18613098403141,  0.00000000000000 ]
    - # atom 11
      - [  0.00000000000000,  0.00000000000000 ]
      - [  0.00000000000000,  0.00000000000000 ]
      - [ -0.18685172576852,  0.00000000000000 ]
    - # atom 12
      - [ -0.00000000000000,  0.00000000000000 ]
      - [ -0.00000000000000,  0.00000000000000 ]
      - [  0.18683006755031,  0.00000000000000 ]
  - # 13
    frequency:    25.0126085111
    eigenvector:
    - # atom 1
      - [  0.00000000000000,  0.00000000000000 ]
      - [ -0.00000000000000,  0.00000000000000 ]
      - [ -0.22774524105512,  0.00000000000000 ]
    - # atom 2
      - [  0.00000000000000,  0.00000000000000 ]
      - [  0.00000000000000,  0.00000000000000 ]
      - [ -0.23092973135324,  0.00000000000000 ]
    - # atom 3
      - [ -0.00000000000000,  0.00000000000000 ]
      - [ -0.00000000000000,  0.00000000000000 ]
      - [  0.00309465182500,  0.00000000000000 ]
    - # atom 4
      - [  0.00000000000000,  0.00000000000000 ]
      - [ -0.00000000000000,  0.00000000000000 ]
      - [  0.23092973135324,  0.00000000000000 ]
    - # atom 5
      - [ -0.00000000000000,  0.00000000000000 ]
      - [  0.00000000000000,  0.00000000000000 ]
      - [  0.22774524105512,  0.00000000000000 ]
    - # atom 6
      - [ -0.00000000000000,  0.00000000000000 ]
      - [  0.00000000000000,  0.00000000000000 ]
      - [ -0.00309465182500,  0.00000000000000 ]
    - # atom 7
      - [  0.00000000000000,  0.00000000000000 ]
      - [ -0.00000000000000,  0.00000000000000 ]
      - [  0.44120409251477,  0.00000000000000 ]
    - # atom 8
      - [ -0.00000000000000,  0.00000000000000 ]
      - [ -0.00000000000000,  0.00000000000000 ]
      - [ -0.00602402405283,  0.00000000000000 ]
    - # atom 9
      - [ -0.00000000000000,  0.00000000000000 ]
      - [  0.00000000000000,  0.00000000000000 ]
      - [  0.44732163748960,  0.00000000000000 ]
    - # atom 10
      - [  0.00000000000000,  0.00000000000000 ]
      - [  0.00000000000000,  0.00000000000000 ]
      - [  0.00602402405284,  0.00000000000000 ]
    - # atom 11
      - [  0.00000000000000,  0.00000000000000 ]
      - [ -0.00000000000000,  0.00000000000000 ]
      - [ -0.44732163748960,  0.00000000000000 ]
    - # atom 12
      - [ -0.00000000000000,  0.00000000000000 ]
      - [ -0.00000000000000,  0.00000000000000 ]
      - [ -0.44120409251477,  0.00000000000000 ]
  - # 14
    frequency:    25.0318003600
    eigenvector:
    - # atom 1
      - [  0.00000000000000,  0.00000000000000 ]
      - [ -0.00000000000000,  0.00000000000000 ]
      - [ -0.13587018558908,  0.00000000000000 ]
    - # atom 2
      - [ -0.00000000000000,  0.00000000000000 ]
      - [ -0.00000000000000,  0.00000000000000 ]
      - [  0.13045784298509,  0.00000000000000 ]
    - # atom 3
      - [  0.00000000000000,  0.00000000000000 ]
      - [ -0.00000000000000,  0.00000000000000 ]
      - [ -0.26387019222626,  0.00000000000000 ]
    - # atom 4
      - [  0.00000000000000,  0.00000000000000 ]
      - [ -0.00000000000000,  0.00000000000000 ]
      - [ -0.13045784298509,  0.00000000000000 ]
    - # atom 5
      - [  0.00000000000000,  0.00000000000000 ]
      - [  0.00000000000000,  0.00000000000000 ]
      - [  0.13587018558908,  0.00000000000000 ]
    - # atom 6
      - [ -0.00000000000000,  0.00000000000000 ]
      - [  0.00000000000000,  0.00000000000000 ]
      - [  0.26387019222626,  0.00000000000000 ]
    - # atom 7
      - [ -0.00000000000000,  0.00000000000000 ]
      - [ -0.00000000000000,  0.00000000000000 ]
      - [  0.26259164349789,  0.00000000000000 ]
    - # atom 8
      - [ -0.00000000000000,  0.00000000000000 ]
      - [ -0.00000000000000,  0.00000000000000 ]
      - [  0.51223231707055,  0.00000000000000 ]
    - # atom 9
      - [ -0.00000000000000,  0.00000000000000 ]
      - [ -0.00000000000000,  0.00000000000000 ]
      - [ -0.25210364463799,  0.00000000000000 ]
    - # atom 10
      - [  0.00000000000000,  0.00000000000000 ]
      - [  0.00000000000000,  0.00000000000000 ]
      - [ -0.51223231707055,  0.00000000000000 ]
    - # atom 11
      - [  0.00000000000000,  0.00000000000000 ]
      - [ -0.00000000000000,  0.00000000000000 ]
      - [  0.25210364463799,  0.00000000000000 ]
    - # atom 12
      - [ -0.00000000000000,  0.00000000000000 ]
      - [ -0.00000000000000,  0.00000000000000 ]
      - [ -0.26259164349789,  0.00000000000000 ]