phonopy:
  version: 1.12.2
  configuration:
    eigenvectors: ".true."
    cell_filename: "../POSCAR"
    mesh_numbers: "1 1 1"
    dim: "1 1 1"
    fc_symmetry: "1"

supercell_matrix:
- [   1,   0,   0 ]
- [   0,   1,   0 ]
- [   0,   0,   1 ]

space_group:
  type: "P2/m"
  number: 10
  Hall_symbol: "-P 2y"

primitive_cell:
  lattice:
  - [    19.314090000000000,     0.000000000000000,     0.000000000000000 ] # a
  - [     0.000000000000000,    19.963010000000001,     0.000000000000000 ] # b
  - [     0.000000000000000,     0.000000000000000,    15.000000000000000 ] # c
  points:
  - symbol: C  # 1
    coordinates: [  0.437567458451965,  0.535395519621960,  0.500000000000000 ]
    mass: 12.010700
  - symbol: C  # 2
    coordinates: [  0.437100440715855,  0.465387025480381,  0.500000000000000 ]
    mass: 12.010700
  - symbol: C  # 3
    coordinates: [  0.500466680011005,  0.570008249145484,  0.500000000000000 ]
    mass: 12.010700
  - symbol: C  # 4
    coordinates: [  0.562899559284145,  0.534612974519620,  0.500000000000000 ]
    mass: 12.010700
  - symbol: C  # 5
    coordinates: [  0.562432541548035,  0.464604981304501,  0.500000000000000 ]
    mass: 12.010700
  - symbol: C  # 6
    coordinates: [  0.499533319988995,  0.429991750854516,  0.500000000000000 ]
    mass: 12.010700
  - symbol: H  # 7
    coordinates: [  0.388837373637245,  0.563021993880583,  0.500000000000000 ]
    mass: 1.007940
  - symbol: H  # 8
    coordinates: [  0.500831270639160,  0.624651202649329,  0.500000000000000 ]
    mass: 1.007940
  - symbol: H  # 9
    coordinates: [  0.388006318749812,  0.438371016437240,  0.500000000000000 ]
    mass: 1.007940
  - symbol: H  # 10
    coordinates: [  0.499168729360840,  0.375348797350671,  0.500000000000000 ]
    mass: 1.007940
  - symbol: H  # 11
    coordinates: [  0.611993681250188,  0.561629484489221,  0.500000000000000 ]
    mass: 1.007940
  - symbol: H  # 12
    coordinates: [  0.611162626362755,  0.436978006119417,  0.500000000000000 ]
    mass: 1.007940
  reciprocal_lattice: # without 2pi
  - [     0.051775672578931,     0.000000000000000,     0.000000000000000 ] # a*
  - [     0.000000000000000,     0.050092646349423,     0.000000000000000 ] # b*
  - [     0.000000000000000,     0.000000000000000,     0.066666666666667 ] # c*

unit_cell:
  lattice:
  - [    19.314090000000000,     0.000000000000000,     0.000000000000000 ] # a
  - [     0.000000000000000,    19.963010000000001,     0.000000000000000 ] # b
  - [     0.000000000000000,     0.000000000000000,    15.000000000000000 ] # c
  points:
  - symbol: C  # 1
    coordinates: [  0.437567458451965,  0.535395519621960,  0.500000000000000 ]
    mass: 12.010700
    reduced_to: 1
  - symbol: C  # 2
    coordinates: [  0.437100440715855,  0.465387025480381,  0.500000000000000 ]
    mass: 12.010700
    reduced_to: 2
  - symbol: C  # 3
    coordinates: [  0.500466680011005,  0.570008249145484,  0.500000000000000 ]
    mass: 12.010700
    reduced_to: 3
  - symbol: C  # 4
    coordinates: [  0.562899559284145,  0.534612974519620,  0.500000000000000 ]
    mass: 12.010700
    reduced_to: 4
  - symbol: C  # 5
    coordinates: [  0.562432541548035,  0.464604981304501,  0.500000000000000 ]
    mass: 12.010700
    reduced_to: 5
  - symbol: C  # 6
    coordinates: [  0.499533319988995,  0.429991750854516,  0.500000000000000 ]
    mass: 12.010700
    reduced_to: 6
  - symbol: H  # 7
    coordinates: [  0.388837373637245,  0.563021993880583,  0.500000000000000 ]
    mass: 1.007940
    reduced_to: 7
  - symbol: H  # 8
    coordinates: [  0.500831270639160,  0.624651202649329,  0.500000000000000 ]
    mass: 1.007940
    reduced_to: 8
  - symbol: H  # 9
    coordinates: [  0.388006318749812,  0.438371016437240,  0.500000000000000 ]
    mass: 1.007940
    reduced_to: 9
  - symbol: H  # 10
    coordinates: [  0.499168729360840,  0.375348797350671,  0.500000000000000 ]
    mass: 1.007940
    reduced_to: 10
  - symbol: H  # 11
    coordinates: [  0.611993681250188,  0.561629484489221,  0.500000000000000 ]
    mass: 1.007940
    reduced_to: 11
  - symbol: H  # 12
    coordinates: [  0.611162626362755,  0.436978006119417,  0.500000000000000 ]
    mass: 1.007940
    reduced_to: 12

supercell:
  lattice:
  - [    19.314090000000000,     0.000000000000000,     0.000000000000000 ] # a
  - [     0.000000000000000,    19.963010000000001,     0.000000000000000 ] # b
  - [     0.000000000000000,     0.000000000000000,    15.000000000000000 ] # c
  points:
  - symbol: C  # 1
    coordinates: [  0.437567458451965,  0.535395519621960,  0.500000000000000 ]
    mass: 12.010700
    reduced_to: 1
  - symbol: C  # 2
    coordinates: [  0.437100440715855,  0.465387025480381,  0.500000000000000 ]
    mass: 12.010700
    reduced_to: 2
  - symbol: C  # 3
    coordinates: [  0.500466680011005,  0.570008249145484,  0.500000000000000 ]
    mass: 12.010700
    reduced_to: 3
  - symbol: C  # 4
    coordinates: [  0.562899559284145,  0.534612974519620,  0.500000000000000 ]
    mass: 12.010700
    reduced_to: 4
  - symbol: C  # 5
    coordinates: [  0.562432541548035,  0.464604981304501,  0.500000000000000 ]
    mass: 12.010700
    reduced_to: 5
  - symbol: C  # 6
    coordinates: [  0.499533319988995,  0.429991750854516,  0.500000000000000 ]
    mass: 12.010700
    reduced_to: 6
  - symbol: H  # 7
    coordinates: [  0.388837373637245,  0.563021993880583,  0.500000000000000 ]
    mass: 1.007940
    reduced_to: 7
  - symbol: H  # 8
    coordinates: [  0.500831270639160,  0.624651202649329,  0.500000000000000 ]
    mass: 1.007940
    reduced_to: 8
  - symbol: H  # 9
    coordinates: [  0.388006318749812,  0.438371016437240,  0.500000000000000 ]
    mass: 1.007940
    reduced_to: 9
  - symbol: H  # 10
    coordinates: [  0.499168729360840,  0.375348797350671,  0.500000000000000 ]
    mass: 1.007940
    reduced_to: 10
  - symbol: H  # 11
    coordinates: [  0.611993681250188,  0.561629484489221,  0.500000000000000 ]
    mass: 1.007940
    reduced_to: 11
  - symbol: H  # 12
    coordinates: [  0.611162626362755,  0.436978006119417,  0.500000000000000 ]
    mass: 1.007940
    reduced_to: 12
