mesh: [     1,     1,     1 ]
nqpoint: 1      
reciprocal_lattice:
- [   0.05176592,   0.00000000,   0.00000000 ] # a*
- [   0.00000000,   0.04656235,   0.00000000 ] # b*
- [   0.00000000,   0.00000000,   0.06666667 ] # c*
natom:   13     
lattice:
- [    19.317730000000001,     0.000000000000000,     0.000000000000000 ] # a
- [     0.000000000000000,    21.476579999999998,     0.000000000000000 ] # b
- [     0.000000000000000,     0.000000000000000,    15.000000000000000 ] # c
points:
- symbol: C  # 1
  coordinates: [  0.436831817632891,  0.497254398485368,  0.500000000000000 ]
  mass: 12.010700
- symbol: C  # 2
  coordinates: [  0.437005078798905,  0.432388060454432,  0.500000000000000 ]
  mass: 12.010700
- symbol: C  # 3
  coordinates: [  0.500025148021734,  0.529849454177800,  0.500000000000000 ]
  mass: 12.010700
- symbol: C  # 4
  coordinates: [  0.563004791491564,  0.496921499700910,  0.500000000000000 ]
  mass: 12.010700
- symbol: C  # 5
  coordinates: [  0.562408324565116,  0.432057171600992,  0.500000000000000 ]
  mass: 12.010700
- symbol: C  # 6
  coordinates: [  0.499600745505371,  0.399725106425689,  0.500000000000000 ]
  mass: 12.010700
- symbol: C  # 7
  coordinates: [  0.500241574389465,  0.596380126590834,  0.500000000000000 ]
  mass: 12.010700
- symbol: H  # 8
  coordinates: [  0.388290981138588,  0.523097338105901,  0.500000000000000 ]
  mass: 1.007940
- symbol: H  # 9
  coordinates: [  0.611713653444940,  0.522507409326197,  0.500000000000000 ]
  mass: 1.007940
- symbol: H  # 10
  coordinates: [  0.611245180240926,  0.406619507060943,  0.500000000000000 ]
  mass: 1.007940
- symbol: H  # 11
  coordinates: [  0.388002966000419,  0.407208775261440,  0.500000000000000 ]
  mass: 1.007940
- symbol: H  # 12
  coordinates: [  0.499435119877825,  0.348949684302461,  0.500000000000000 ]
  mass: 1.007940
- symbol: N  # 13
  coordinates: [  0.500417753805108,  0.650797690400846,  0.500000000000000 ]
  mass: 14.006700
phonon:
- q-position: [    0.0000000,    0.0000000,    0.0000000 ]
  weight: 1    
  band:
  - # 1
    frequency:    -0.0000010718
    eigenvector:
    - # atom 1
      - [  0.34127931785903,  0.00000000000000 ]
      - [ -0.00000000000115,  0.00000000000000 ]
      - [ -0.00000000000027,  0.00000000000000 ]
    - # atom 2
      - [  0.34127931786006,  0.00000000000000 ]
      - [ -0.00000000000115,  0.00000000000000 ]
      - [  0.00000000000052,  0.00000000000000 ]
    - # atom 3
      - [  0.34127931785852,  0.00000000000000 ]
      - [ -0.00000000000025,  0.00000000000000 ]
      - [ -0.00000000000055,  0.00000000000000 ]
    - # atom 4
      - [  0.34127931785904,  0.00000000000000 ]
      - [  0.00000000000064,  0.00000000000000 ]
      - [ -0.00000000000004,  0.00000000000000 ]
    - # atom 5
      - [  0.34127931786006,  0.00000000000000 ]
      - [  0.00000000000063,  0.00000000000000 ]
      - [  0.00000000000075,  0.00000000000000 ]
    - # atom 6
      - [  0.34127931786057,  0.00000000000000 ]
      - [ -0.00000000000026,  0.00000000000000 ]
      - [  0.00000000000103,  0.00000000000000 ]
    - # atom 7
      - [  0.34127931785746,  0.00000000000000 ]
      - [ -0.00000000000025,  0.00000000000000 ]
      - [ -0.00000000000136,  0.00000000000000 ]
    - # atom 8
      - [  0.09886513200769,  0.00000000000000 ]
      - [ -0.00000000000053,  0.00000000000000 ]
      - [ -0.00000000000019,  0.00000000000000 ]
    - # atom 9
      - [  0.09886513200769,  0.00000000000000 ]
      - [  0.00000000000039,  0.00000000000000 ]
      - [ -0.00000000000008,  0.00000000000000 ]
    - # atom 10
      - [  0.09886513200822,  0.00000000000000 ]
      - [  0.00000000000038,  0.00000000000000 ]
      - [  0.00000000000033,  0.00000000000000 ]
    - # atom 11
      - [  0.09886513200822,  0.00000000000000 ]
      - [ -0.00000000000053,  0.00000000000000 ]
      - [  0.00000000000022,  0.00000000000000 ]
    - # atom 12
      - [  0.09886513200848,  0.00000000000000 ]
      - [ -0.00000000000008,  0.00000000000000 ]
      - [  0.00000000000048,  0.00000000000000 ]
    - # atom 13
      - [  0.36854771573817,  0.00000000000000 ]
      - [ -0.00000000000027,  0.00000000000000 ]
      - [ -0.00000000000218,  0.00000000000000 ]
  - # 2
    frequency:    -0.0000001726
    eigenvector:
    - # atom 1
      - [  0.00000000000000,  0.00000000000000 ]
      - [ -0.32292306055108,  0.00000000000000 ]
      - [ -0.11041861149283,  0.00000000000000 ]
    - # atom 2
      - [  0.00000000000300,  0.00000000000000 ]
      - [ -0.32292306055107,  0.00000000000000 ]
      - [ -0.11041861149564,  0.00000000000000 ]
    - # atom 3
      - [ -0.00000000000151,  0.00000000000000 ]
      - [ -0.32292306054845,  0.00000000000000 ]
      - [ -0.11041861149291,  0.00000000000000 ]
    - # atom 4
      - [  0.00000000000002,  0.00000000000000 ]
      - [ -0.32292306054583,  0.00000000000000 ]
      - [ -0.11041861149583,  0.00000000000000 ]
    - # atom 5
      - [  0.00000000000302,  0.00000000000000 ]
      - [ -0.32292306054585,  0.00000000000000 ]
      - [ -0.11041861149862,  0.00000000000000 ]
    - # atom 6
      - [  0.00000000000451,  0.00000000000000 ]
      - [ -0.32292306054847,  0.00000000000000 ]
      - [ -0.11041861149853,  0.00000000000000 ]
    - # atom 7
      - [ -0.00000000000459,  0.00000000000000 ]
      - [ -0.32292306054844,  0.00000000000000 ]
      - [ -0.11041861149004,  0.00000000000000 ]
    - # atom 8
      - [ -0.00000000000035,  0.00000000000000 ]
      - [ -0.09354751178662,  0.00000000000000 ]
      - [ -0.03198714375549,  0.00000000000000 ]
    - # atom 9
      - [ -0.00000000000034,  0.00000000000000 ]
      - [ -0.09354751178392,  0.00000000000000 ]
      - [ -0.03198714375703,  0.00000000000000 ]
    - # atom 10
      - [  0.00000000000122,  0.00000000000000 ]
      - [ -0.09354751178393,  0.00000000000000 ]
      - [ -0.03198714375848,  0.00000000000000 ]
    - # atom 11
      - [  0.00000000000121,  0.00000000000000 ]
      - [ -0.09354751178662,  0.00000000000000 ]
      - [ -0.03198714375694,  0.00000000000000 ]
    - # atom 12
      - [  0.00000000000199,  0.00000000000000 ]
      - [ -0.09354751178528,  0.00000000000000 ]
      - [ -0.03198714375843,  0.00000000000000 ]
    - # atom 13
      - [ -0.00000000000766,  0.00000000000000 ]
      - [ -0.34872478376882,  0.00000000000000 ]
      - [ -0.11924111690787,  0.00000000000000 ]
  - # 3
    frequency:     0.0000011871
    eigenvector:
    - # atom 1
      - [  0.00000000000000,  0.00000000000000 ]
      - [  0.11041861149283,  0.00000000000000 ]
      - [ -0.32292306057797,  0.00000000000000 ]
    - # atom 2
      - [  0.00000000000136,  0.00000000000000 ]
      - [  0.11041861149283,  0.00000000000000 ]
      - [ -0.32292306056934,  0.00000000000000 ]
    - # atom 3
      - [ -0.00000000000069,  0.00000000000000 ]
      - [  0.11041861149403,  0.00000000000000 ]
      - [ -0.32292306055180,  0.00000000000000 ]
    - # atom 4
      - [  0.00000000000001,  0.00000000000000 ]
      - [  0.11041861149522,  0.00000000000000 ]
      - [ -0.32292306051705,  0.00000000000000 ]
    - # atom 5
      - [  0.00000000000137,  0.00000000000000 ]
      - [  0.11041861149521,  0.00000000000000 ]
      - [ -0.32292306050876,  0.00000000000000 ]
    - # atom 6
      - [  0.00000000000205,  0.00000000000000 ]
      - [  0.11041861149402,  0.00000000000000 ]
      - [ -0.32292306053481,  0.00000000000000 ]
    - # atom 7
      - [ -0.00000000000207,  0.00000000000000 ]
      - [  0.11041861149403,  0.00000000000000 ]
      - [ -0.32292306056050,  0.00000000000000 ]
    - # atom 8
      - [ -0.00000000000016,  0.00000000000000 ]
      - [  0.03198714375589,  0.00000000000000 ]
      - [ -0.09354751180159,  0.00000000000000 ]
    - # atom 9
      - [ -0.00000000000015,  0.00000000000000 ]
      - [  0.03198714375710,  0.00000000000000 ]
      - [ -0.09354751177036,  0.00000000000000 ]
    - # atom 10
      - [  0.00000000000055,  0.00000000000000 ]
      - [  0.03198714375710,  0.00000000000000 ]
      - [ -0.09354751176596,  0.00000000000000 ]
    - # atom 11
      - [  0.00000000000055,  0.00000000000000 ]
      - [  0.03198714375588,  0.00000000000000 ]
      - [ -0.09354751179721,  0.00000000000000 ]
    - # atom 12
      - [  0.00000000000091,  0.00000000000000 ]
      - [  0.03198714375649,  0.00000000000000 ]
      - [ -0.09354751177940,  0.00000000000000 ]
    - # atom 13
      - [ -0.00000000000347,  0.00000000000000 ]
      - [  0.11924111691471,  0.00000000000000 ]
      - [ -0.34872478378956,  0.00000000000000 ]
  - # 4
    frequency:     0.0923964767
    eigenvector:
    - # atom 1
      - [ -0.00000000000039,  0.00000000000000 ]
      - [ -0.00000000000647,  0.00000000000000 ]
      - [ -0.44493167665397,  0.00000000000000 ]
    - # atom 2
      - [ -0.00000000000307,  0.00000000000000 ]
      - [ -0.00000000000648,  0.00000000000000 ]
      - [ -0.43500272103511,  0.00000000000000 ]
    - # atom 3
      - [  0.00000000000095,  0.00000000000000 ]
      - [ -0.00000000000882,  0.00000000000000 ]
      - [ -0.00298335012032,  0.00000000000000 ]
    - # atom 4
      - [ -0.00000000000041,  0.00000000000000 ]
      - [ -0.00000000001116,  0.00000000000000 ]
      - [  0.44648121495201,  0.00000000000000 ]
    - # atom 5
      - [ -0.00000000000309,  0.00000000000000 ]
      - [ -0.00000000001114,  0.00000000000000 ]
      - [  0.45149498715603,  0.00000000000000 ]
    - # atom 6
      - [ -0.00000000000442,  0.00000000000000 ]
      - [ -0.00000000000880,  0.00000000000000 ]
      - [  0.01199770045976,  0.00000000000000 ]
    - # atom 7
      - [  0.00000000000369,  0.00000000000000 ]
      - [ -0.00000000000883,  0.00000000000000 ]
      - [ -0.01056128600456,  0.00000000000000 ]
    - # atom 8
      - [  0.00000000000020,  0.00000000000000 ]
      - [ -0.00000000000135,  0.00000000000000 ]
      - [ -0.22913354862530,  0.00000000000000 ]
    - # atom 9
      - [  0.00000000000019,  0.00000000000000 ]
      - [ -0.00000000000376,  0.00000000000000 ]
      - [  0.22786387138222,  0.00000000000000 ]
    - # atom 10
      - [ -0.00000000000120,  0.00000000000000 ]
      - [ -0.00000000000375,  0.00000000000000 ]
      - [  0.23188180181427,  0.00000000000000 ]
    - # atom 11
      - [ -0.00000000000119,  0.00000000000000 ]
      - [ -0.00000000000135,  0.00000000000000 ]
      - [ -0.22539877601456,  0.00000000000000 ]
    - # atom 12
      - [ -0.00000000000189,  0.00000000000000 ]
      - [ -0.00000000000255,  0.00000000000000 ]
      - [  0.00517297377204,  0.00000000000000 ]
    - # atom 13
      - [  0.00000000000638,  0.00000000000000 ]
      - [ -0.00000000000954,  0.00000000000000 ]
      - [ -0.01806062644272,  0.00000000000000 ]
  - # 5
    frequency:     0.1597375378
    eigenvector:
    - # atom 1
      - [  0.00000000000000,  0.00000000000000 ]
      - [ -0.00000000001493,  0.00000000000000 ]
      - [  0.04160604095722,  0.00000000000000 ]
    - # atom 2
      - [  0.00000000000946,  0.00000000000000 ]
      - [ -0.00000000001491,  0.00000000000000 ]
      - [  0.30788167768404,  0.00000000000000 ]
    - # atom 3
      - [ -0.00000000000475,  0.00000000000000 ]
      - [ -0.00000000000665,  0.00000000000000 ]
      - [ -0.10550125344353,  0.00000000000000 ]
    - # atom 4
      - [  0.00000000000005,  0.00000000000000 ]
      - [  0.00000000000160,  0.00000000000000 ]
      - [  0.01675995283396,  0.00000000000000 ]
    - # atom 5
      - [  0.00000000000950,  0.00000000000000 ]
      - [  0.00000000000153,  0.00000000000000 ]
      - [  0.28316880053895,  0.00000000000000 ]
    - # atom 6
      - [  0.00000000001421,  0.00000000000000 ]
      - [ -0.00000000000671,  0.00000000000000 ]
      - [  0.42896913379364,  0.00000000000000 ]
    - # atom 7
      - [ -0.00000000001444,  0.00000000000000 ]
      - [ -0.00000000000662,  0.00000000000000 ]
      - [ -0.37864068535225,  0.00000000000000 ]
    - # atom 8
      - [ -0.00000000000109,  0.00000000000000 ]
      - [ -0.00000000000617,  0.00000000000000 ]
      - [ -0.01581670577096,  0.00000000000000 ]
    - # atom 9
      - [ -0.00000000000107,  0.00000000000000 ]
      - [  0.00000000000231,  0.00000000000000 ]
      - [ -0.02855363019921,  0.00000000000000 ]
    - # atom 10
      - [  0.00000000000383,  0.00000000000000 ]
      - [  0.00000000000230,  0.00000000000000 ]
      - [  0.10940194468822,  0.00000000000000 ]
    - # atom 11
      - [  0.00000000000380,  0.00000000000000 ]
      - [ -0.00000000000618,  0.00000000000000 ]
      - [  0.12214534388690,  0.00000000000000 ]
    - # atom 12
      - [  0.00000000000626,  0.00000000000000 ]
      - [ -0.00000000000195,  0.00000000000000 ]
      - [  0.18454098243302,  0.00000000000000 ]
    - # atom 13
      - [ -0.00000000002413,  0.00000000000000 ]
      - [ -0.00000000000713,  0.00000000000000 ]
      - [ -0.64999186205957,  0.00000000000000 ]
  - # 6
    frequency:     0.1695717985
    eigenvector:
    - # atom 1
      - [  0.02515301265680,  0.00000000000000 ]
      - [ -0.20675148308493,  0.00000000000000 ]
      - [ -0.00000000000344,  0.00000000000000 ]
    - # atom 2
      - [  0.26141031228842,  0.00000000000000 ]
      - [ -0.20618876935090,  0.00000000000000 ]
      - [ -0.00000000001398,  0.00000000000000 ]
    - # atom 3
      - [ -0.09357247707630,  0.00000000000000 ]
      - [  0.00028181596514,  0.00000000000000 ]
      - [  0.00000000000745,  0.00000000000000 ]
    - # atom 4
      - [  0.02635838520266,  0.00000000000000 ]
      - [  0.20659666970000,  0.00000000000000 ]
      - [  0.00000000000765,  0.00000000000000 ]
    - # atom 5
      - [  0.26260475294125,  0.00000000000000 ]
      - [  0.20464433429370,  0.00000000000000 ]
      - [ -0.00000000000295,  0.00000000000000 ]
    - # atom 6
      - [  0.38037290577048,  0.00000000000000 ]
      - [ -0.00112327684548,  0.00000000000000 ]
      - [ -0.00000000001376,  0.00000000000000 ]
    - # atom 7
      - [ -0.33572620857142,  0.00000000000000 ]
      - [  0.00099368651890,  0.00000000000000 ]
      - [  0.00000000001829,  0.00000000000000 ]
    - # atom 8
      - [ -0.01997824295387,  0.00000000000000 ]
      - [ -0.10594357539894,  0.00000000000000 ]
      - [ -0.00000000000102,  0.00000000000000 ]
    - # atom 9
      - [ -0.01935400736699,  0.00000000000000 ]
      - [  0.10605030485558,  0.00000000000000 ]
      - [  0.00000000000467,  0.00000000000000 ]
    - # atom 10
      - [  0.10292361563666,  0.00000000000000 ]
      - [  0.10564637293861,  0.00000000000000 ]
      - [ -0.00000000000081,  0.00000000000000 ]
    - # atom 11
      - [  0.10230708215320,  0.00000000000000 ]
      - [ -0.10625377671235,  0.00000000000000 ]
      - [ -0.00000000000649,  0.00000000000000 ]
    - # atom 12
      - [  0.16370820302544,  0.00000000000000 ]
      - [ -0.00048207767324,  0.00000000000000 ]
      - [ -0.00000000000638,  0.00000000000000 ]
    - # atom 13
      - [ -0.57605709627054,  0.00000000000000 ]
      - [  0.00169618959995,  0.00000000000000 ]
      - [  0.00000000002933,  0.00000000000000 ]
  - # 7
    frequency:     4.1380735789
    eigenvector:
    - # atom 1
      - [  0.00000000000006,  0.00000000000000 ]
      - [  0.00000000000004,  0.00000000000000 ]
      - [  0.33360189967460,  0.00000000000000 ]
    - # atom 2
      - [ -0.00000000000000,  0.00000000000000 ]
      - [  0.00000000000004,  0.00000000000000 ]
      - [ -0.09304943590655,  0.00000000000000 ]
    - # atom 3
      - [  0.00000000000008,  0.00000000000000 ]
      - [ -0.00000000000000,  0.00000000000000 ]
      - [  0.42582656255028,  0.00000000000000 ]
    - # atom 4
      - [  0.00000000000006,  0.00000000000000 ]
      - [ -0.00000000000005,  0.00000000000000 ]
      - [  0.33368830920005,  0.00000000000000 ]
    - # atom 5
      - [ -0.00000000000000,  0.00000000000000 ]
      - [ -0.00000000000005,  0.00000000000000 ]
      - [ -0.09294195235416,  0.00000000000000 ]
    - # atom 6
      - [ -0.00000000000003,  0.00000000000000 ]
      - [ -0.00000000000000,  0.00000000000000 ]
      - [ -0.39210560049935,  0.00000000000000 ]
    - # atom 7
      - [  0.00000000000004,  0.00000000000000 ]
      - [ -0.00000000000000,  0.00000000000000 ]
      - [  0.11893802523631,  0.00000000000000 ]
    - # atom 8
      - [  0.00000000000002,  0.00000000000000 ]
      - [  0.00000000000002,  0.00000000000000 ]
      - [  0.13263186683864,  0.00000000000000 ]
    - # atom 9
      - [  0.00000000000002,  0.00000000000000 ]
      - [ -0.00000000000003,  0.00000000000000 ]
      - [  0.13267065269961,  0.00000000000000 ]
    - # atom 10
      - [ -0.00000000000001,  0.00000000000000 ]
      - [ -0.00000000000003,  0.00000000000000 ]
      - [ -0.07325584250064,  0.00000000000000 ]
    - # atom 11
      - [ -0.00000000000001,  0.00000000000000 ]
      - [  0.00000000000002,  0.00000000000000 ]
      - [ -0.07331015052929,  0.00000000000000 ]
    - # atom 12
      - [ -0.00000000000002,  0.00000000000000 ]
      - [ -0.00000000000000,  0.00000000000000 ]
      - [ -0.23898333997495,  0.00000000000000 ]
    - # atom 13
      - [ -0.00000000000016,  0.00000000000000 ]
      - [ -0.00000000000000,  0.00000000000000 ]
      - [ -0.55479511176451,  0.00000000000000 ]
  - # 8
    frequency:     4.7922899404
    eigenvector:
    - # atom 1
      - [ -0.22974213846281,  0.00000000000000 ]
      - [ -0.19658339760633,  0.00000000000000 ]
      - [  0.00000000000007,  0.00000000000000 ]
    - # atom 2
      - [  0.03585542316839,  0.00000000000000 ]
      - [ -0.20711894184222,  0.00000000000000 ]
      - [ -0.00000000000003,  0.00000000000000 ]
    - # atom 3
      - [ -0.34598764587588,  0.00000000000000 ]
      - [  0.00102223132908,  0.00000000000000 ]
      - [  0.00000000000010,  0.00000000000000 ]
    - # atom 4
      - [ -0.22859498534149,  0.00000000000000 ]
      - [  0.19791095994428,  0.00000000000000 ]
      - [  0.00000000000009,  0.00000000000000 ]
    - # atom 5
      - [  0.03705709960859,  0.00000000000000 ]
      - [  0.20688509634648,  0.00000000000000 ]
      - [ -0.00000000000001,  0.00000000000000 ]
    - # atom 6
      - [  0.15780040482585,  0.00000000000000 ]
      - [ -0.00048127535122,  0.00000000000000 ]
      - [ -0.00000000000009,  0.00000000000000 ]
    - # atom 7
      - [ -0.16655275943048,  0.00000000000000 ]
      - [  0.00050545144505,  0.00000000000000 ]
      - [  0.00000000000003,  0.00000000000000 ]
    - # atom 8
      - [ -0.09777169797331,  0.00000000000000 ]
      - [ -0.10960599671482,  0.00000000000000 ]
      - [  0.00000000000003,  0.00000000000000 ]
    - # atom 9
      - [ -0.09712411174454,  0.00000000000000 ]
      - [  0.11016159550362,  0.00000000000000 ]
      - [  0.00000000000004,  0.00000000000000 ]
    - # atom 10
      - [  0.04015409969979,  0.00000000000000 ]
      - [  0.11084629176889,  0.00000000000000 ]
      - [ -0.00000000000001,  0.00000000000000 ]
    - # atom 11
      - [  0.03950700604007,  0.00000000000000 ]
      - [ -0.11108624202304,  0.00000000000000 ]
      - [ -0.00000000000002,  0.00000000000000 ]
    - # atom 12
      - [  0.09940165666392,  0.00000000000000 ]
      - [ -0.00029702908929,  0.00000000000000 ]
      - [ -0.00000000000006,  0.00000000000000 ]
    - # atom 13
      - [  0.68964803134894,  0.00000000000000 ]
      - [ -0.00198677384767,  0.00000000000000 ]
      - [ -0.00000000000012,  0.00000000000000 ]
  - # 9
    frequency:    11.1584520775
    eigenvector:
    - # atom 1
      - [  0.00000000000000,  0.00000000000000 ]
      - [  0.00000000000000,  0.00000000000000 ]
      - [  0.24361079960203,  0.00000000000000 ]
    - # atom 2
      - [  0.00000000000000,  0.00000000000000 ]
      - [  0.00000000000000,  0.00000000000000 ]
      - [  0.19262114072389,  0.00000000000000 ]
    - # atom 3
      - [  0.00000000000000,  0.00000000000000 ]
      - [ -0.00000000000000,  0.00000000000000 ]
      - [ -0.30968515556970,  0.00000000000000 ]
    - # atom 4
      - [  0.00000000000000,  0.00000000000000 ]
      - [ -0.00000000000000,  0.00000000000000 ]
      - [  0.24346516057782,  0.00000000000000 ]
    - # atom 5
      - [  0.00000000000000,  0.00000000000000 ]
      - [ -0.00000000000000,  0.00000000000000 ]
      - [  0.19277976417163,  0.00000000000000 ]
    - # atom 6
      - [ -0.00000000000000,  0.00000000000000 ]
      - [  0.00000000000000,  0.00000000000000 ]
      - [ -0.38521845619790,  0.00000000000000 ]
    - # atom 7
      - [ -0.00000000000000,  0.00000000000000 ]
      - [ -0.00000000000000,  0.00000000000000 ]
      - [ -0.57802693004795,  0.00000000000000 ]
    - # atom 8
      - [  0.00000000000000,  0.00000000000000 ]
      - [  0.00000000000000,  0.00000000000000 ]
      - [  0.15411041310314,  0.00000000000000 ]
    - # atom 9
      - [  0.00000000000000,  0.00000000000000 ]
      - [ -0.00000000000000,  0.00000000000000 ]
      - [  0.15400983141710,  0.00000000000000 ]
    - # atom 10
      - [  0.00000000000000,  0.00000000000000 ]
      - [ -0.00000000000000,  0.00000000000000 ]
      - [  0.12408514778899,  0.00000000000000 ]
    - # atom 11
      - [  0.00000000000000,  0.00000000000000 ]
      - [  0.00000000000000,  0.00000000000000 ]
      - [  0.12398114733931,  0.00000000000000 ]
    - # atom 12
      - [ -0.00000000000000,  0.00000000000000 ]
      - [  0.00000000000000,  0.00000000000000 ]
      - [ -0.25697486209390,  0.00000000000000 ]
    - # atom 13
      - [  0.00000000000000,  0.00000000000000 ]
      - [ -0.00000000000000,  0.00000000000000 ]
      - [  0.29055927104870,  0.00000000000000 ]
  - # 10
    frequency:    11.7356269586
    eigenvector:
    - # atom 1
      - [  0.00000000000000,  0.00000000000000 ]
      - [  0.00000000000000,  0.00000000000000 ]
      - [ -0.41746014680985,  0.00000000000000 ]
    - # atom 2
      - [  0.00000000000000,  0.00000000000000 ]
      - [  0.00000000000000,  0.00000000000000 ]
      - [  0.42317221357180,  0.00000000000000 ]
    - # atom 3
      - [ -0.00000000000000,  0.00000000000000 ]
      - [  0.00000000000000,  0.00000000000000 ]
      - [ -0.00004677888777,  0.00000000000000 ]
    - # atom 4
      - [ -0.00000000000000,  0.00000000000000 ]
      - [ -0.00000000000000,  0.00000000000000 ]
      - [  0.41755747631959,  0.00000000000000 ]
    - # atom 5
      - [  0.00000000000000,  0.00000000000000 ]
      - [ -0.00000000000000,  0.00000000000000 ]
      - [ -0.42309904943109,  0.00000000000000 ]
    - # atom 6
      - [  0.00000000000000,  0.00000000000000 ]
      - [ -0.00000000000000,  0.00000000000000 ]
      - [ -0.00007698181607,  0.00000000000000 ]
    - # atom 7
      - [ -0.00000000000000,  0.00000000000000 ]
      - [  0.00000000000000,  0.00000000000000 ]
      - [ -0.00010719529838,  0.00000000000000 ]
    - # atom 8
      - [ -0.00000000000000,  0.00000000000000 ]
      - [ -0.00000000000000,  0.00000000000000 ]
      - [ -0.27402969243919,  0.00000000000000 ]
    - # atom 9
      - [ -0.00000000000000,  0.00000000000000 ]
      - [ -0.00000000000000,  0.00000000000000 ]
      - [  0.27407876476666,  0.00000000000000 ]
    - # atom 10
      - [  0.00000000000000,  0.00000000000000 ]
      - [ -0.00000000000000,  0.00000000000000 ]
      - [ -0.26744685121683,  0.00000000000000 ]
    - # atom 11
      - [  0.00000000000000,  0.00000000000000 ]
      - [  0.00000000000000,  0.00000000000000 ]
      - [  0.26748077916171,  0.00000000000000 ]
    - # atom 12
      - [ -0.00000000000000,  0.00000000000000 ]
      - [ -0.00000000000000,  0.00000000000000 ]
      - [ -0.00005324730608,  0.00000000000000 ]
    - # atom 13
      - [  0.00000000000000,  0.00000000000000 ]
      - [  0.00000000000000,  0.00000000000000 ]
      - [  0.00004800740442,  0.00000000000000 ]
  - # 11
    frequency:    13.5706374621
    eigenvector:
    - # atom 1
      - [ -0.16394792080352,  0.00000000000000 ]
      - [  0.14336996067785,  0.00000000000000 ]
      - [ -0.00000000000000,  0.00000000000000 ]
    - # atom 2
      - [ -0.14440708392162,  0.00000000000000 ]
      - [  0.21308740222881,  0.00000000000000 ]
      - [  0.00000000000000,  0.00000000000000 ]
    - # atom 3
      - [ -0.00071598747132,  0.00000000000000 ]
      - [ -0.23497775751172,  0.00000000000000 ]
      - [  0.00000000000000,  0.00000000000000 ]
    - # atom 4
      - [  0.16473408123633,  0.00000000000000 ]
      - [  0.14242901491928,  0.00000000000000 ]
      - [ -0.00000000000000,  0.00000000000000 ]
    - # atom 5
      - [  0.14567667470606,  0.00000000000000 ]
      - [  0.21226930114296,  0.00000000000000 ]
      - [ -0.00000000000000,  0.00000000000000 ]
    - # atom 6
      - [  0.00130682353074,  0.00000000000000 ]
      - [  0.43841257449522,  0.00000000000000 ]
      - [  0.00000000000000,  0.00000000000000 ]
    - # atom 7
      - [ -0.00129788595117,  0.00000000000000 ]
      - [ -0.44866618917621,  0.00000000000000 ]
      - [  0.00000000000000,  0.00000000000000 ]
    - # atom 8
      - [ -0.00349049998469,  0.00000000000000 ]
      - [  0.11408172253874,  0.00000000000000 ]
      - [ -0.00000000000000,  0.00000000000000 ]
    - # atom 9
      - [  0.00414682098891,  0.00000000000000 ]
      - [  0.11406506565743,  0.00000000000000 ]
      - [  0.00000000000000,  0.00000000000000 ]
    - # atom 10
      - [  0.00964397766710,  0.00000000000000 ]
      - [  0.00688910841812,  0.00000000000000 ]
      - [ -0.00000000000000,  0.00000000000000 ]
    - # atom 11
      - [ -0.00958982197187,  0.00000000000000 ]
      - [  0.00692121536607,  0.00000000000000 ]
      - [  0.00000000000000,  0.00000000000000 ]
    - # atom 12
      - [  0.00038211728222,  0.00000000000000 ]
      - [  0.12711000182975,  0.00000000000000 ]
      - [  0.00000000000000,  0.00000000000000 ]
    - # atom 13
      - [ -0.00154200743165,  0.00000000000000 ]
      - [ -0.53045559683939,  0.00000000000000 ]
      - [ -0.00000000000000,  0.00000000000000 ]
  - # 12
    frequency:    16.4009863184
    eigenvector:
    - # atom 1
      - [  0.00000000000000,  0.00000000000000 ]
      - [ -0.00000000000000,  0.00000000000000 ]
      - [  0.10735887796777,  0.00000000000000 ]
    - # atom 2
      - [  0.00000000000000,  0.00000000000000 ]
      - [ -0.00000000000000,  0.00000000000000 ]
      - [ -0.19681421165665,  0.00000000000000 ]
    - # atom 3
      - [ -0.00000000000000,  0.00000000000000 ]
      - [ -0.00000000000000,  0.00000000000000 ]
      - [  0.48706478969186,  0.00000000000000 ]
    - # atom 4
      - [ -0.00000000000000,  0.00000000000000 ]
      - [ -0.00000000000000,  0.00000000000000 ]
      - [  0.10735628089818,  0.00000000000000 ]
    - # atom 5
      - [ -0.00000000000000,  0.00000000000000 ]
      - [ -0.00000000000000,  0.00000000000000 ]
      - [ -0.19680027914130,  0.00000000000000 ]
    - # atom 6
      - [  0.00000000000000,  0.00000000000000 ]
      - [ -0.00000000000000,  0.00000000000000 ]
      - [  0.27506809913457,  0.00000000000000 ]
    - # atom 7
      - [  0.00000000000000,  0.00000000000000 ]
      - [ -0.00000000000000,  0.00000000000000 ]
      - [ -0.59620063154877,  0.00000000000000 ]
    - # atom 8
      - [ -0.00000000000000,  0.00000000000000 ]
      - [ -0.00000000000000,  0.00000000000000 ]
      - [ -0.15178265285997,  0.00000000000000 ]
    - # atom 9
      - [ -0.00000000000000,  0.00000000000000 ]
      - [ -0.00000000000000,  0.00000000000000 ]
      - [ -0.15178150498411,  0.00000000000000 ]
    - # atom 10
      - [  0.00000000000000,  0.00000000000000 ]
      - [  0.00000000000000,  0.00000000000000 ]
      - [ -0.25939167410185,  0.00000000000000 ]
    - # atom 11
      - [ -0.00000000000000,  0.00000000000000 ]
      - [ -0.00000000000000,  0.00000000000000 ]
      - [ -0.25939226820013,  0.00000000000000 ]
    - # atom 12
      - [ -0.00000000000000,  0.00000000000000 ]
      - [ -0.00000000000000,  0.00000000000000 ]
      - [  0.06191435379001,  0.00000000000000 ]
    - # atom 13
      - [  0.00000000000000,  0.00000000000000 ]
      - [ -0.00000000000000,  0.00000000000000 ]
      - [  0.21599856330496,  0.00000000000000 ]
  - # 13
    frequency:    16.4703166996
    eigenvector:
    - # atom 1
      - [  0.31165789696754,  0.00000000000000 ]
      - [ -0.04445318938570,  0.00000000000000 ]
      - [ -0.00000000000000,  0.00000000000000 ]
    - # atom 2
      - [ -0.09552504578949,  0.00000000000000 ]
      - [ -0.00243445622213,  0.00000000000000 ]
      - [ -0.00000000000000,  0.00000000000000 ]
    - # atom 3
      - [  0.22350499484542,  0.00000000000000 ]
      - [ -0.00067330079673,  0.00000000000000 ]
      - [  0.00000000000000,  0.00000000000000 ]
    - # atom 4
      - [  0.31194946002434,  0.00000000000000 ]
      - [  0.04261927742892,  0.00000000000000 ]
      - [ -0.00000000000000,  0.00000000000000 ]
    - # atom 5
      - [ -0.09548762299344,  0.00000000000000 ]
      - [  0.00301099139299,  0.00000000000000 ]
      - [ -0.00000000000000,  0.00000000000000 ]
    - # atom 6
      - [ -0.14395104213622,  0.00000000000000 ]
      - [  0.00045165867022,  0.00000000000000 ]
      - [  0.00000000000000,  0.00000000000000 ]
    - # atom 7
      - [ -0.78319454664218,  0.00000000000000 ]
      - [  0.00227613329200,  0.00000000000000 ]
      - [  0.00000000000000,  0.00000000000000 ]
    - # atom 8
      - [  0.12276446480081,  0.00000000000000 ]
      - [  0.04181486046872,  0.00000000000000 ]
      - [ -0.00000000000000,  0.00000000000000 ]
    - # atom 9
      - [  0.12252330580604,  0.00000000000000 ]
      - [ -0.04253090835726,  0.00000000000000 ]
      - [ -0.00000000000000,  0.00000000000000 ]
    - # atom 10
      - [ -0.06176685815512,  0.00000000000000 ]
      - [ -0.05972171687219,  0.00000000000000 ]
      - [ -0.00000000000000,  0.00000000000000 ]
    - # atom 11
      - [ -0.06141586858302,  0.00000000000000 ]
      - [  0.06007847249913,  0.00000000000000 ]
      - [ -0.00000000000000,  0.00000000000000 ]
    - # atom 12
      - [ -0.02383365066662,  0.00000000000000 ]