13   
52   

1    
  0.0079216531666031   0.0000000000000000   0.0061030657138890
  -0.5213235700    0.0189510700   -0.0673062100
   0.0898167400   -0.0057518900    0.0325827200
   0.2230314200    0.0771384500    0.0364453300
   0.0348914600   -0.0153949600   -0.0048667500
   0.0189104600    0.0180217800    0.0024063100
  -0.0282232200   -0.0202025900   -0.0051056600
   0.1694393700   -0.0955314100    0.0184709600
   0.0004757500    0.0177968500   -0.0017367300
   0.0016007900   -0.0012535300   -0.0029504200
   0.0021389800    0.0031099300   -0.0037058200
  -0.0003010700    0.0014708100    0.0006386500
   0.0015081300   -0.0003707000    0.0006038300
   0.0080347700    0.0020162000   -0.0054762100

1    
 -0.0079216531666031   0.0000000000000000  -0.0061030657138890
   0.5006354500   -0.0231658100    0.0666402800
  -0.0855464300    0.0103362800   -0.0323957000
  -0.2098049100   -0.0727172700   -0.0379651900
  -0.0353406300    0.0196762400    0.0046090800
  -0.0083068300   -0.0163247100   -0.0024010200
   0.0192910300    0.0135765800    0.0049126000
  -0.1901947800    0.0889897400   -0.0161399000
   0.0015512000   -0.0251268700    0.0019642100
  -0.0023416600    0.0033223700    0.0029753200
  -0.0034115200    0.0080552800    0.0036511300
   0.0001749400    0.0003476100   -0.0006252900
   0.0076159000    0.0017873300   -0.0005906000
   0.0056782300   -0.0087567600    0.0053650900

1    
  0.0000000000000000   0.0100000000000000   0.0000000000000000
   0.0200543600   -0.6389937800    0.0000000000
   0.0420359600    0.3100798500    0.0000000000
   0.0333253800    0.1352433200    0.0000000000
   0.0082175800   -0.0444375500    0.0000000000
   0.0315394800    0.0353160000    0.0000000000
  -0.0617108400    0.0315506100    0.0000000000
  -0.1270323200    0.1238525000    0.0000000000
  -0.0004763400    0.0053361300    0.0000000000
  -0.0041925500    0.0026594200    0.0000000000
  -0.0029014200    0.0052614800    0.0000000000
   0.0008347300    0.0015432400    0.0000000000
   0.0103161900   -0.0029667900    0.0000000000
   0.0499897800    0.0355555600    0.0000000000

1    
  0.0000000000000000  -0.0100000000000000   0.0000000000000000
  -0.0330941100    0.6675149700    0.0000000000
  -0.0400309700   -0.3288354200    0.0000000000
  -0.0257771900   -0.1364150900    0.0000000000
  -0.0095707800    0.0493003700    0.0000000000
  -0.0213422200   -0.0340703300    0.0000000000
   0.0539056900   -0.0388192100    0.0000000000
   0.1063341400   -0.1345463900    0.0000000000
   0.0024530600   -0.0127964200    0.0000000000
   0.0034095400   -0.0005702700    0.0000000000
   0.0016364300    0.0058941800    0.0000000000
  -0.0009845700    0.0002551200    0.0000000000
  -0.0011463800    0.0045285600    0.0000000000
  -0.0357926500   -0.0414400700    0.0000000000

2    
  0.0079216531666031   0.0000000000000000   0.0061030657138890
   0.0791581100    0.0355226200    0.0324362300
  -0.5272210900   -0.0099986000   -0.0757018100
  -0.0168657500    0.0242396200   -0.0014323200
   0.0079204800   -0.0156885200    0.0021465500
   0.0490817300    0.0099308200   -0.0047055100
   0.1968629000   -0.1025281500    0.0346347400
  -0.0112087400   -0.0264739200   -0.0010161000
   0.2062835000    0.0733159600    0.0215061900
  -0.0006129200    0.0005663600    0.0006159100
  -0.0044377100    0.0087077700   -0.0010202900
   0.0029408800    0.0030851900   -0.0037709500
   0.0056092600    0.0004771000    0.0004156400
   0.0124893500   -0.0011562500   -0.0041082900

2    
 -0.0079216531666031   0.0000000000000000  -0.0061030657138890
  -0.0962071000   -0.0294352200   -0.0325416800
   0.5329361800    0.0251124300    0.0749896500
   0.0214632500   -0.0252050600    0.0012347300
  -0.0088890600    0.0201581000   -0.0021586300
  -0.0380336100   -0.0083452900    0.0044267100
  -0.1993658100    0.0902576300   -0.0360488700
  -0.0043048000    0.0148306100    0.0012411300
  -0.2122201500   -0.0854570300   -0.0189788200
  -0.0001857700    0.0014896200   -0.0006075500
   0.0032129600    0.0024656300    0.0010010900
  -0.0030074400   -0.0012867600    0.0037892000
   0.0035546000    0.0010098800   -0.0004096300
   0.0010467400   -0.0055945400    0.0040626900

2    
  0.0000000000000000   0.0100000000000000   0.0000000000000000
  -0.0177403300    0.3343941300    0.0000000000
  -0.0227345000   -0.6383236500    0.0000000000
   0.0763152100    0.0187100300    0.0000000000
  -0.0198067800    0.0433399000    0.0000000000
  -0.0215720000   -0.0488041600    0.0000000000
  -0.0711792000    0.1718558400    0.0000000000
  -0.0051158200    0.0064156700    0.0000000000
   0.1003989100    0.0964881100    0.0000000000
  -0.0014222700    0.0018506500    0.0000000000
  -0.0255732500    0.0178604100    0.0000000000
   0.0035520400    0.0010369900    0.0000000000
   0.0042326800    0.0016103800    0.0000000000
   0.0006453200   -0.0064342900    0.0000000000

2    
  0.0000000000000000  -0.0100000000000000   0.0000000000000000
   0.0025143200   -0.3045270800    0.0000000000
   0.0215932000    0.6200896100    0.0000000000
  -0.0707268800   -0.0194454900    0.0000000000
   0.0185013900   -0.0385604400    0.0000000000
   0.0318004100    0.0501452100    0.0000000000
   0.0680922300   -0.1806278500    0.0000000000
  -0.0104748300   -0.0177027200    0.0000000000
  -0.1006488800   -0.1028342400    0.0000000000
   0.0006160800    0.0002182800    0.0000000000
   0.0246439100   -0.0070912100    0.0000000000
  -0.0036710900    0.0007487800    0.0000000000
   0.0049134700   -0.0001148900    0.0000000000
   0.0128466900   -0.0002979600    0.0000000000

3    
  0.0079216531666031   0.0000000000000000   0.0061030657138890
   0.2037131800    0.0249584100    0.0379951200
  -0.0172129200    0.0595657800   -0.0013090400
  -0.5182446800    0.0161117500   -0.0876845300
   0.2045966800   -0.0399521200    0.0376551300
  -0.0256758200   -0.0493403600   -0.0012813700
   0.0440059500   -0.0076323700    0.0033896700
   0.0058810000    0.0027371800   -0.0020268000
  -0.0005585200   -0.0046518300   -0.0042341900
   0.0142577200   -0.0107943400   -0.0028411300
   0.0007002800    0.0055066200    0.0001931900
  -0.0013227900    0.0025106700   -0.0043562100
   0.0045899200   -0.0328655800    0.0017871800
   0.0852699900    0.0338461800    0.0227129700

3    
 -0.0079216531666031   0.0000000000000000  -0.0061030657138890
  -0.2291250900   -0.0219290900   -0.0364170400
   0.0211143900   -0.0569125600    0.0013607500
   0.5255650400   -0.0062201600    0.0877086500
  -0.1992936800    0.0393697600   -0.0391719300
   0.0362084200    0.0506624300    0.0012897000
  -0.0526015000    0.0012182900   -0.0033916900
  -0.0217944500   -0.0145244200    0.0022997300
   0.0026217400   -0.0025456400    0.0041441100
  -0.0146489300    0.0127919000    0.0025626600
  -0.0019776500    0.0056859000   -0.0001933400
   0.0012010100   -0.0007329300    0.0044487400
   0.0045928800    0.0344651700   -0.0013791800
  -0.0718621700   -0.0413286500   -0.0232611600

3    
  0.0000000000000000   0.0100000000000000   0.0000000000000000
   0.0847842000    0.1399849100    0.0000000000
   0.0331792600    0.0202966900    0.0000000000
   0.0144300700   -0.6326691000    0.0000000000
  -0.1076417900    0.1528835700    0.0000000000
  -0.0169843600    0.0348931900    0.0000000000
  -0.0096488400   -0.0076930800    0.0000000000
  -0.0272393400   -0.0109559700    0.0000000000
   0.0006937800    0.0009059600    0.0000000000
   0.0143193600   -0.0082732700    0.0000000000
  -0.0009270500    0.0049746000    0.0000000000
   0.0012726600    0.0048914100    0.0000000000
   0.0083918900    0.0285030700    0.0000000000
   0.0053701500    0.2722580200    0.0000000000

3    
  0.0000000000000000  -0.0100000000000000   0.0000000000000000
  -0.1042987900   -0.1316726700    0.0000000000
  -0.0292436700   -0.0178593600    0.0000000000
  -0.0136994300    0.6123679400    0.0000000000
   0.1119562700   -0.1499160200    0.0000000000
   0.0275159900   -0.0339984900    0.0000000000
   0.0010234900    0.0007518300    0.0000000000
   0.0116894100   -0.0007467900    0.0000000000
   0.0013319000   -0.0080849700    0.0000000000
  -0.0151440000    0.0103830900    0.0000000000
  -0.0003457000    0.0062414300    0.0000000000
  -0.0013499900   -0.0031153100    0.0000000000
   0.0003565400   -0.0257530900    0.0000000000
   0.0102079700   -0.2585975800    0.0000000000

4    
  0.0079216531666031   0.0000000000000000   0.0061030657138890
   0.0264603300    0.0109713200   -0.0046048400
   0.0103832200   -0.0136390900    0.0021479900
   0.2014154200   -0.0847209200    0.0391228700
  -0.5254247500   -0.0289286800   -0.0690458100
   0.0956072400    0.0352014400    0.0327482300
  -0.0189474200    0.0201003500   -0.0047951700
  -0.0049076500   -0.0035891600   -0.0028627400
   0.0006772800   -0.0040123200    0.0006646200
   0.2117805200    0.0865278100    0.0173836300
   0.0027820500    0.0075752200   -0.0035315600
  -0.0034519300   -0.0191610400   -0.0020581100
   0.0028629600    0.0035619800   -0.0015393200
   0.0007627300   -0.0098869100   -0.0036297900

4    
 -0.0079216531666031   0.0000000000000000  -0.0061030657138890
  -0.0437782200   -0.0031143900    0.0048710500
  -0.0064314300    0.0167044700   -0.0021570700
  -0.2024697800    0.0892771500   -0.0377021000
   0.5230623500    0.0211172800    0.0697700200
  -0.0847590500   -0.0320038300   -0.0326770700
   0.0105785900   -0.0268579000    0.0050267400
  -0.0106635600   -0.0081776900    0.0028511000
   0.0014009800   -0.0031400600   -0.0006787700
  -0.2050822500   -0.0792722800   -0.0199652500
  -0.0040693000    0.0035826200    0.0035825200
   0.0033345300    0.0208457200    0.0018599700
   0.0062203400   -0.0019970000    0.0015419700
   0.0126567900    0.0030359100    0.0036769100

4    
  0.0000000000000000   0.0100000000000000   0.0000000000000000
  -0.0303328900   -0.0428087200    0.0000000000
  -0.0204765400    0.0422908500    0.0000000000
  -0.0503104600    0.1517187000    0.0000000000
  -0.0295100600   -0.6456690700    0.0000000000
  -0.0042256000    0.3151396400    0.0000000000
   0.0601790400    0.0183273400    0.0000000000
  -0.0038617300   -0.0058911700    0.0000000000
   0.0002927000   -0.0027974500    0.0000000000
   0.1040981900    0.1035367400    0.0000000000
   0.0009984000    0.0046012500    0.0000000000
   0.0032836300    0.0133680700    0.0000000000
   0.0056780400    0.0072916200    0.0000000000
  -0.0358127400    0.0408922200    0.0000000000

4    
  0.0000000000000000  -0.0100000000000000   0.0000000000000000
   0.0139358900    0.0509326200    0.0000000000
   0.0247727100   -0.0396106100    0.0000000000
   0.0497837100   -0.1510822500    0.0000000000
   0.0336614700    0.6706199300    0.0000000000
   0.0128382800   -0.3355775500    0.0000000000
  -0.0695486100   -0.0253873500    0.0000000000
  -0.0116482400   -0.0058543000    0.0000000000
   0.0018003700   -0.0043778100    0.0000000000
  -0.1020458100   -0.1021140400    0.0000000000
  -0.0022898200    0.0065622900    0.0000000000
  -0.0033220400   -0.0119654100    0.0000000000
   0.0034094500   -0.0056505800    0.0000000000
   0.0486526300   -0.0464949400    0.0000000000

5    
  0.0079216531666031   0.0000000000000000   0.0061030657138890
   0.0052180700    0.0248651900    0.0024108200
   0.0452890800   -0.0195900300   -0.0044331000
  -0.0283809500   -0.0181748700   -0.0012009600
   0.0895415400   -0.0054240900    0.0326423300
  -0.5149784800    0.0285988700   -0.0759279000
   0.2074693500    0.0776357100    0.0361994200
  -0.0077724000   -0.0053473400    0.0005799700
   0.0031803000   -0.0060313400   -0.0038920200
  -0.0019514100    0.0222441900   -0.0013275100
  -0.0019886300    0.0040144700   -0.0009812600
   0.1859569800   -0.0964404100    0.0194796800
   0.0048305400   -0.0010035800   -0.0009702200
   0.0135860000   -0.0053467800   -0.0025792500

5    
 -0.0079216531666031   0.0000000000000000  -0.0061030657138890
  -0.0220036200   -0.0170189500   -0.0023960600
  -0.0418296500    0.0226873600    0.0046997100
   0.0335042800    0.0170759400    0.0013680800
  -0.0908254200    0.0081430500   -0.0327833300
   0.5291824300   -0.0149216200    0.0765899900
  -0.2246099500   -0.0896230800   -0.0346711300
  -0.0077287200   -0.0064385400   -0.0005876500
  -0.0011643700   -0.0011280300    0.0038645700
   0.0012019300   -0.0200022000    0.0010722400
   0.0006288600    0.0071314900    0.0010398900
  -0.1805164000    0.0929716600   -0.0217906200
   0.0043349400    0.0025248400    0.0009806800
  -0.0001743100   -0.0014019200    0.0026136300

5    
  0.0000000000000000   0.0100000000000000   0.0000000000000000
   0.0134539400    0.0387884800    0.0000000000
   0.0136816300   -0.0481586800    0.0000000000
  -0.0610623800    0.0342046000    0.0000000000
   0.0430859700    0.3386466600    0.0000000000
   0.0307289300   -0.6519377100    0.0000000000
   0.0477631500    0.1469322700    0.0000000000
  -0.0066079100   -0.0051482300    0.0000000000
  -0.0030167400   -0.0024273600    0.0000000000
  -0.0016913200    0.0092088000    0.0000000000
   0.0262268300    0.0145050700    0.0000000000
  -0.1174686300    0.1327307300    0.0000000000
   0.0044542200    0.0004221500    0.0000000000
   0.0104523200   -0.0077667800    0.0000000000

5    
  0.0000000000000000  -0.0100000000000000   0.0000000000000000
  -0.0299051800   -0.0306006300    0.0000000000
  -0.0093822800    0.0507949300    0.0000000000
   0.0651817300   -0.0346875100    0.0000000000
  -0.0418203200   -0.3120718900    0.0000000000
  -0.0241964300    0.6318311500    0.0000000000
  -0.0592662500   -0.1537964500    0.0000000000
  -0.0088789600   -0.0066199100    0.0000000000
   0.0050750600   -0.0047547700    0.0000000000
   0.0009973900   -0.0067863600    0.0000000000
  -0.0278627100   -0.0036305900    0.0000000000
   0.1223473000   -0.1317812700    0.0000000000
   0.0046863200    0.0010961100    0.0000000000
   0.0030243300    0.0010071900    0.0000000000

6    
  0.0079216531666031   0.0000000000000000   0.0061030657138890
  -0.0321125800   -0.0417723600   -0.0049836900
   0.1969045700   -0.0509461200    0.0361043700
   0.0507500800   -0.0048126300    0.0033890100
  -0.0152760700    0.0537795500   -0.0049580600
   0.2256870300    0.0457742900    0.0346246900
  -0.4904734500   -0.0127906100   -0.0712249800
  -0.0092801800   -0.0041963300   -0.0039410300
   0.0141766900   -0.0159053100   -0.0018709900
  -0.0019989700    0.0002623400   -0.0040685400
   0.0415303400    0.0215078100    0.0182935100
   0.0134187300    0.0102643200   -0.0021146300
   0.0043985600    0.0012890300   -0.0000768500
   0.0022752400   -0.0024539600    0.0008271800

6    
 -0.0079216531666031   0.0000000000000000  -0.0061030657138890
   0.0154017300    0.0498059600    0.0050367600
  -0.1993260100    0.0594197800   -0.0345808500
  -0.0458559800    0.0036377700   -0.0033923000
   0.0142542600   -0.0489839800    0.0048658700
  -0.2063984400   -0.0390896400   -0.0362474700
   0.4790793700   -0.0071891200    0.0711448600
  -0.0062340400   -0.0075436700    0.0038756600
  -0.0125140700    0.0088742300    0.0021326900
   0.0012210000    0.0018316400    0.0041327300
  -0.0424412700   -0.0081421600   -0.0180924200
  -0.0131304200   -0.0083927000    0.0018728800
   0.0047547000    0.0002101800    0.0000749400
   0.0111891500   -0.0044382900   -0.0008233500

6    
  0.0000000000000000   0.0100000000000000   0.0000000000000000
  -0.0298150800    0.0394595900    0.0000000000
  -0.1223593000    0.1784217100    0.0000000000
  -0.0031857500   -0.0046682500    0.0000000000
   0.0292845100    0.0243020200    0.0000000000
   0.1121609300    0.1509318900    0.0000000000
  -0.0056582700   -0.6804510700    0.0000000000
  -0.0068220600   -0.0009549200    0.0000000000
   0.0141154100   -0.0138006500    0.0000000000
  -0.0005283100    0.0060252400    0.0000000000
   0.0172596500    0.3078625800    0.0000000000
  -0.0169966200   -0.0090213300    0.0000000000
   0.0049564500    0.0001870500    0.0000000000
   0.0075884300    0.0017061400    0.0000000000

6    
  0.0000000000000000  -0.0100000000000000   0.0000000000000000
   0.0128342500   -0.0309187700    0.0000000000
   0.1209591000   -0.1740546200    0.0000000000
   0.0079866900    0.0037768500    0.0000000000
  -0.0299964300   -0.0194160700    0.0000000000
  -0.0988769300   -0.1497968100    0.0000000000
   0.0014178700    0.6916601300    0.0000000000
  -0.0087147100   -0.0107476200    0.0000000000
  -0.0119769700    0.0066794900    0.0000000000
  -0.0002243200   -0.0039080000    0.0000000000
  -0.0203249800   -0.3169099800    0.0000000000
   0.0168303700    0.0108809000    0.0000000000
   0.0042082800    0.0013161200    0.0000000000
   0.0058777900   -0.0085616000    0.0000000000

7    
  0.0079216531666031   0.0000000000000000   0.0061030657138890
   0.1738993200   -0.0908260300    0.0163800300
  -0.0014635300    0.0036129700   -0.0011227200
   0.0163824900   -0.0160409500   -0.0022541500
   0.0023335000    0.0053575300   -0.0028709400
   0.0051769700    0.0016717200    0.0005862000
  -0.0058362400   -0.0025365400   -0.0039333300
  -0.2006166400    0.0970865500   -0.0110827600
   0.0004343400   -0.0038054900    0.0023645300
   0.0003699300    0.0002929700   -0.0000389200
  -0.0006963300    0.0057690200   -0.0003138000
  -0.0000379600    0.0008447800    0.0004668700
   0.0052972300    0.0023589100   -0.0002907200
   0.0047569200   -0.0037854400    0.0021097100

7    
 -0.0079216531666031   0.0000000000000000  -0.0061030657138890
  -0.1857336800    0.0940589100   -0.0182398200
   0.0054424600   -0.0006307200    0.0011342700
  -0.0112954900    0.0147977300    0.0020710200
  -0.0034243300   -0.0008140800    0.0028433900
   0.0052179400   -0.0001258200   -0.0005816000
  -0.0027892700   -0.0040352600    0.0038838600
   0.1802179400   -0.1041504600    0.0131162800
   0.0016547000   -0.0033776500   -0.0023264500
  -0.0011569700    0.0017776500    0.0000463700
  -0.0005877100    0.0054265700    0.0003064000
  -0.0000870900    0.0009640300   -0.0004626800
   0.0038492900   -0.0008517100    0.0002714900
   0.0086922100   -0.0030391800   -0.0020625600

7    
  0.0000000000000000   0.0100000000000000   0.0000000000000000
  -0.1223694500    0.1326936500    0.0000000000
  -0.0238454300    0.0133653700    0.0000000000
   0.0131738800   -0.0055871800    0.0000000000
   0.0023143800    0.0022439000    0.0000000000
   0.0058683300    0.0014879800    0.0000000000
  -0.0021701100    0.0015644200    0.0000000000
   0.1168267800   -0.1425254700    0.0000000000
   0.0013222900   -0.0045539100    0.0000000000
   0.0001145100    0.0006304700    0.0000000000
  -0.0019517900    0.0063071100    0.0000000000
  -0.0001727700    0.0008729500    0.0000000000
   0.0031798700    0.0008796800    0.0000000000
   0.0077095100   -0.0073789900    0.0000000000

7    
  0.0000000000000000  -0.0100000000000000   0.0000000000000000
   0.1105207200   -0.1257166400    0.0000000000
   0.0282998600   -0.0107546400    0.0000000000
  -0.0086205900    0.0046244500    0.0000000000
  -0.0034808500    0.0022809500    0.0000000000
   0.0044916200    0.0000149800    0.0000000000
  -0.0063932700   -0.0082242000    0.0000000000
  -0.1371786900    0.1319632200    0.0000000000
   0.0007486000   -0.0026067700    0.0000000000
  -0.0009222500    0.0014456700    0.0000000000
   0.0006784700    0.0048757000    0.0000000000
   0.0000451000    0.0009357800    0.0000000000
   0.0059591300    0.0005932400    0.0000000000
   0.0058521600    0.0005682400    0.0000000000

8    
  0.0079216531666031   0.0000000000000000   0.0061030657138890
  -0.0089401000    0.0027679300   -0.0018634800
   0.2150002300    0.0834144900    0.0192347400
   0.0008274600   -0.0008550700   -0.0042170000
  -0.0009230100    0.0016749200    0.0006753400
   0.0073734700   -0.0024383400   -0.0039051400
   0.0091121200    0.0070562000   -0.0020742900
  -0.0083548500   -0.0056489000    0.0023664600
  -0.2245308700   -0.0912612700   -0.0129035400
  -0.0003669100    0.0011040800    0.0004923500
  -0.0013338700    0.0054085000    0.0022789500
   0.0007304600    0.0014309300   -0.0000702900
   0.0045930200    0.0006855800    0.0000105700
   0.0068128400   -0.0033390500   -0.0000246800

8    
 -0.0079216531666031   0.0000000000000000  -0.0061030657138890
  -0.0078655400    0.0050886200    0.0018375600
  -0.2035066400   -0.0759230400   -0.0212611400
   0.0040072200   -0.0003498000    0.0041621600
  -0.0001997400    0.0028689300   -0.0006683400
   0.0030286700    0.0039730300    0.0038523300
  -0.0175815500   -0.0136165000    0.0019287500
  -0.0071347300   -0.0061037000   -0.0023246700
   0.2192771000    0.0795883500    0.0151123500
  -0.0004289600    0.0009637000   -0.0004866800
   0.0000492600    0.0057818700   -0.0022387000
  -0.0008534600    0.0003736800    0.0000762000
   0.0045781500    0.0008138400   -0.0000098100
   0.0066302100   -0.0034589800    0.0000199900

8    
  0.0000000000000000   0.0100000000000000   0.0000000000000000
   0.0189602500    0.0131705800    0.0000000000
   0.1032379500    0.1007053700    0.0000000000
   0.0011119300    0.0039303500    0.0000000000
  -0.0011176600    0.0030738700    0.0000000000
   0.0020808100    0.0019470900    0.0000000000
  -0.0199986200   -0.0135919100    0.0000000000
  -0.0080206500   -0.0068554500    0.0000000000
  -0.1079146600   -0.1071915000    0.0000000000
  -0.0003341400    0.0009755700    0.0000000000
  -0.0001460600    0.0048643600    0.0000000000
  -0.0009252400    0.0005424100    0.0000000000
   0.0047582400    0.0004583100    0.0000000000
   0.0083078600   -0.0020290400    0.0000000000

8    
  0.0000000000000000  -0.0100000000000000   0.0000000000000000
  -0.0352275400   -0.0049605800    0.0000000000
  -0.0970853900   -0.0986292100    0.0000000000
   0.0037696800   -0.0050581500    0.0000000000
  -0.0000159300    0.0014946100    0.0000000000
   0.0082730600   -0.0003821200    0.0000000000
   0.0112808000    0.0068851500    0.0000000000
  -0.0074810700   -0.0049089300    0.0000000000
   0.1076656000    0.1005878000    0.0000000000
  -0.0004617100    0.0010936000    0.0000000000
  -0.0010821500    0.0063285200    0.0000000000
   0.0007922200    0.0012556800    0.0000000000
   0.0044172100    0.0010408800    0.0000000000
   0.0051552100   -0.0047472600    0.0000000000

9    
  0.0079216531666031   0.0000000000000000   0.0061030657138890
  -0.0063566100    0.0009606800   -0.0029461100
   0.0018552800    0.0006487700    0.0006087700
   0.0167705100    0.0110790500   -0.0026133800
   0.2044108200    0.0816263300    0.0197045300
   0.0037012400   -0.0002707400   -0.0011958000
  -0.0059152100   -0.0034086300   -0.0040722200
  -0.0069903300   -0.0054715100   -0.0000455600
   0.0010683700   -0.0035296800    0.0004869800
  -0.2170636700   -0.0861993100   -0.0142456500
  -0.0006241900    0.0054607400   -0.0002818200
  -0.0006505900    0.0011410000    0.0024352200
   0.0042611100    0.0008584700    0.0003524600
   0.0055332700   -0.0028951600    0.0018125900

9    
 -0.0079216531666031   0.0000000000000000  -0.0061030657138890
  -0.0103001900    0.0069806000    0.0029807300
   0.0022831400    0.0022632900   -0.0006147900
  -0.0121364600   -0.0122679600    0.0027893700
  -0.2124550700   -0.0817501700   -0.0176559900
   0.0068521700    0.0018623800    0.0012034400
  -0.0026924600   -0.0031660800    0.0041297000
  -0.0085176900   -0.0062933900    0.0000396800
   0.0010079700   -0.0036310400   -0.0004920800
   0.2232426600    0.0928955300    0.0120125400
  -0.0006381000    0.0057341200    0.0002885500
   0.0005145000    0.0006513600   -0.0024780400
   0.0049130300    0.0006360400   -0.0003636600
   0.0079264900   -0.0039146800   -0.0018394400

9    
  0.0000000000000000   0.0100000000000000   0.0000000000000000
  -0.0111850500    0.0055833900    0.0000000000
   0.0015016700    0.0022518300    0.0000000000
  -0.0123662400   -0.0099000100    0.0000000000
   0.1027742700    0.1054135100    0.0000000000
   0.0316742400    0.0086368600    0.0000000000
  -0.0053261000    0.0016458600    0.0000000000
  -0.0086836100   -0.0062919200    0.0000000000
   0.0011267400   -0.0036394600    0.0000000000
  -0.1120251700   -0.1055059300    0.0000000000
   0.0006612700    0.0060973200    0.0000000000
  -0.0003499900   -0.0000951000    0.0000000000
   0.0048598200    0.0005974800    0.0000000000
   0.0073381500   -0.0047938200    0.0000000000

9    
  0.0000000000000000  -0.0100000000000000   0.0000000000000000
  -0.0054140900    0.0023553500    0.0000000000
   0.0026631600    0.0006168400    0.0000000000
   0.0174087100    0.0087618100    0.0000000000
  -0.1064162500   -0.1002443600    0.0000000000
  -0.0216550300   -0.0073587000    0.0000000000
  -0.0033469100   -0.0082943100    0.0000000000
  -0.0068109000   -0.0054759000    0.0000000000
   0.0009501900   -0.0035215000    0.0000000000
   0.1139638100    0.1072253800    0.0000000000
  -0.0019424600    0.0050855500    0.0000000000
   0.0002238300    0.0018977400    0.0000000000
   0.0043138900    0.0009099700    0.0000000000
   0.0060620500   -0.0019578700    0.0000000000

10   
  0.0079216531666031   0.0000000000000000   0.0061030657138890
  -0.0055376700    0.0021855600   -0.0036824100
  -0.0017865800   -0.0183689700   -0.0009421700
   0.0037571800   -0.0008159200    0.0001931900
   0.0028659500    0.0035913400   -0.0035569000
   0.0039279400    0.0222852600   -0.0010849600
   0.0374943000    0.0103032400    0.0181109300
  -0.0078068000   -0.0069233900   -0.0003155800
   0.0003417500   -0.0031990900    0.0022606000
  -0.0003879700    0.0020675900   -0.0002796400
  -0.0431088100   -0.0092330100   -0.0134201300
  -0.0007626200    0.0005632400    0.0021843100
   0.0046360600    0.0008744700    0.0000515300
   0.0063672700   -0.0033303300    0.0004812300

10   
 -0.0079216531666031   0.0000000000000000  -0.0061030657138890
  -0.0110897200    0.0057802500    0.0036743600
   0.0058668500    0.0214089400    0.0010784500
   0.0010787100   -0.0003545400   -0.0001933200
  -0.0039833800    0.0009866100    0.0035566400
   0.0065494800   -0.0205610800    0.0009352400
  -0.0464831900   -0.0194231300   -0.0182736600
  -0.0076987700   -0.0048417600    0.0003045000
   0.0017250300   -0.0039411000   -0.0022565300
  -0.0004028100    0.0000049500    0.0002906700
   0.0421694700    0.0225192300    0.0135983600
   0.0006452800    0.0012601400   -0.0021824300
   0.0045373400    0.0006236500   -0.0000522900
   0.0070856900   -0.0034621600   -0.0004799700

10   
  0.0000000000000000   0.0100000000000000   0.0000000000000000
  -0.0114258300    0.0036670300    0.0000000000
   0.0060328700    0.0138777700    0.0000000000
   0.0023038000   -0.0012150200    0.0000000000
   0.0019415200    0.0013022200    0.0000000000
   0.0031931100    0.0097318600    0.0000000000
   0.0152714500    0.3186876800    0.0000000000
  -0.0075363300   -0.0051707100    0.0000000000
   0.0008032300   -0.0043147100    0.0000000000
  -0.0005689000    0.0015347900    0.0000000000
  -0.0215272700   -0.3355540600    0.0000000000
   0.0001998800    0.0002045500    0.0000000000
   0.0044931100    0.0006560500    0.0000000000
   0.0068193600   -0.0034074400    0.0000000000

10   
  0.0000000000000000  -0.0100000000000000   0.0000000000000000
  -0.0051796200    0.0042970800    0.0000000000
  -0.0018487500   -0.0110697800    0.0000000000
   0.0025281100    0.0000494000    0.0000000000
  -0.0031017900    0.0032609600    0.0000000000
   0.0071287500   -0.0083982100    0.0000000000
  -0.0222110600   -0.3060837300    0.0000000000
  -0.0079667600   -0.0066029600    0.0000000000
   0.0012733200   -0.0028506700    0.0000000000
  -0.0002246200    0.0005242300    0.0000000000
   0.0186099500    0.3278110100    0.0000000000
  -0.0003241000    0.0016068600    0.0000000000
   0.0046834200    0.0008443900    0.0000000000
   0.0066331400   -0.0033885800    0.0000000000

11   
  0.0079216531666031   0.0000000000000000   0.0061030657138890
  -0.0085563100    0.0046896000    0.0006290600
   0.0050323100    0.0043147900   -0.0037569900
   0.0011522800    0.0004375300   -0.0043765600
  -0.0038639100    0.0048376100   -0.0019571000
   0.1859131600   -0.0918303200    0.0215666500
   0.0088637900   -0.0166613200   -0.0019155800
  -0.0077252800   -0.0059706500    0.0004622500
   0.0018263300   -0.0042619700   -0.0000769200
  -0.0009865100    0.0008183300    0.0024364900
  -0.0013359500    0.0058016000    0.0021654000
  -0.1915338000    0.1003893800   -0.0152079500
   0.0045332500    0.0008588400    0.0001409400
   0.0066806400   -0.0034234200   -0.0001096900

11   
 -0.0079216531666031   0.0000000000000000  -0.0061030657138890
  -0.0080842300    0.0032486200   -0.0006347000
  -0.0009169200   -0.0014092000    0.0038040800
   0.0036774600   -0.0016374800    0.0044291600
   0.0029218500   -0.0003949200    0.0019607200
  -0.1805653300    0.0981730000   -0.0197127200
  -0.0176886200    0.0101414300    0.0020711800
  -0.0077753900   -0.0057983000   -0.0004672800
   0.0002432200   -0.0029013700    0.0000696200
   0.0001778700    0.0012712200   -0.0024766100
   0.0000711100    0.0053876400   -0.0022017300
   0.1965151400   -0.1033500800    0.0131849300
   0.0046429900    0.0006377900   -0.0001411700
   0.0067808700   -0.0033683600    0.0001145200

11   
  0.0000000000000000   0.0100000000000000   0.0000000000000000
  -0.0076020700    0.0046273200    0.0000000000
   0.0048554200    0.0016112600    0.0000000000
   0.0044443900    0.0034483800    0.0000000000
  -0.0259844300    0.0151021300    0.0000000000
  -0.1166177900    0.1334021600    0.0000000000
   0.0075572500   -0.0133313500    0.0000000000
  -0.0078252400   -0.0059143700    0.0000000000
   0.0017098600   -0.0039424700    0.0000000000
  -0.0000845000    0.0000373400    0.0000000000
  -0.0010996100    0.0049003200    0.0000000000
   0.1308833100   -0.1387546600    0.0000000000
   0.0045370300    0.0012477200    0.0000000000
   0.0052263800   -0.0024337600    0.0000000000

11   
  0.0000000000000000  -0.0100000000000000   0.0000000000000000
  -0.0090197300    0.0033388400    0.0000000000