mesh: [     1,     1,     1 ]
nqpoint: 1      
reciprocal_lattice:
- [   0.05136189,   0.00000000,   0.00000000 ] # a*
- [   0.00000000,   0.04850547,   0.00000000 ] # b*
- [   0.00000000,   0.00000000,   0.06666667 ] # c*
natom:   13     
lattice:
- [    19.469690000000000,     0.000000000000000,     0.000000000000000 ] # a
- [     0.000000000000000,    20.616230000000002,     0.000000000000000 ] # b
- [     0.000000000000000,     0.000000000000000,    15.000000000000000 ] # c
points:
- symbol: C  # 1
  coordinates: [  0.440458135467382,  0.521462008373666,  0.500000000000000 ]
  mass: 12.010700
- symbol: C  # 2
  coordinates: [  0.435471744743399,  0.453896877713960,  0.500000000000000 ]
  mass: 12.010700
- symbol: C  # 3
  coordinates: [  0.505190513085408,  0.551027762399455,  0.500000000000000 ]
  mass: 12.010700
- symbol: C  # 4
  coordinates: [  0.564751946807799,  0.513004201025657,  0.500000000000000 ]
  mass: 12.010700
- symbol: C  # 5
  coordinates: [  0.559045434979822,  0.445587552541795,  0.500000000000000 ]
  mass: 12.010700
- symbol: C  # 6
  coordinates: [  0.494624275558127,  0.415580787670565,  0.500000000000000 ]
  mass: 12.010700
- symbol: H  # 7
  coordinates: [  0.394127713133017,  0.551397598840611,  0.500000000000000 ]
  mass: 1.007940
- symbol: H  # 8
  coordinates: [  0.384833755608080,  0.431269015549485,  0.500000000000000 ]
  mass: 1.007940
- symbol: H  # 9
  coordinates: [  0.614682163229291,  0.536903175731434,  0.500000000000000 ]
  mass: 1.007940
- symbol: H  # 10
  coordinates: [  0.490609437648058,  0.362852716104316,  0.500000000000000 ]
  mass: 1.007940
- symbol: H  # 11
  coordinates: [  0.605609579079735,  0.416163376770230,  0.500000000000000 ]
  mass: 1.007940
- symbol: H  # 12
  coordinates: [  0.468309424025795,  0.637700528981210,  0.500000000000000 ]
  mass: 1.007940
- symbol: O  # 13
  coordinates: [  0.513377095857408,  0.617265067416081,  0.500000000000000 ]
  mass: 15.999400
phonon:
- q-position: [    0.0000000,    0.0000000,    0.0000000 ]
  weight: 1    
  band:
  - # 1
    frequency:    -0.4465747635
    eigenvector:
    - # atom 1
      - [  0.00000000000000,  0.00000000000000 ]
      - [  0.00000000000100,  0.00000000000000 ]
      - [  0.42200447433629,  0.00000000000000 ]
    - # atom 2
      - [ -0.00000000000090,  0.00000000000000 ]
      - [  0.00000000000106,  0.00000000000000 ]
      - [  0.49427521900932,  0.00000000000000 ]
    - # atom 3
      - [  0.00000000000039,  0.00000000000000 ]
      - [  0.00000000000018,  0.00000000000000 ]
      - [ -0.04905671326840,  0.00000000000000 ]
    - # atom 4
      - [ -0.00000000000011,  0.00000000000000 ]
      - [ -0.00000000000056,  0.00000000000000 ]
      - [ -0.44441824737750,  0.00000000000000 ]
    - # atom 5
      - [ -0.00000000000101,  0.00000000000000 ]
      - [ -0.00000000000049,  0.00000000000000 ]
      - [ -0.36656161512523,  0.00000000000000 ]
    - # atom 6
      - [ -0.00000000000141,  0.00000000000000 ]
      - [  0.00000000000032,  0.00000000000000 ]
      - [  0.10126397326792,  0.00000000000000 ]
    - # atom 7
      - [  0.00000000000012,  0.00000000000000 ]
      - [  0.00000000000046,  0.00000000000000 ]
      - [  0.21197571738923,  0.00000000000000 ]
    - # atom 8
      - [ -0.00000000000035,  0.00000000000000 ]
      - [  0.00000000000049,  0.00000000000000 ]
      - [  0.24985665321188,  0.00000000000000 ]
    - # atom 9
      - [  0.00000000000006,  0.00000000000000 ]
      - [ -0.00000000000035,  0.00000000000000 ]
      - [ -0.23410114735937,  0.00000000000000 ]
    - # atom 10
      - [ -0.00000000000061,  0.00000000000000 ]
      - [  0.00000000000011,  0.00000000000000 ]
      - [  0.04600530283286,  0.00000000000000 ]
    - # atom 11
      - [ -0.00000000000041,  0.00000000000000 ]
      - [ -0.00000000000031,  0.00000000000000 ]
      - [ -0.19590332715763,  0.00000000000000 ]
    - # atom 12
      - [  0.00000000000045,  0.00000000000000 ]
      - [  0.00000000000019,  0.00000000000000 ]
      - [  0.04723582957926,  0.00000000000000 ]
    - # atom 13
      - [  0.00000000000148,  0.00000000000000 ]
      - [  0.00000000000009,  0.00000000000000 ]
      - [ -0.16786023245938,  0.00000000000000 ]
  - # 2
    frequency:    -0.1492061441
    eigenvector:
    - # atom 1
      - [  0.06320120553321,  0.00000000000000 ]
      - [  0.24561682928280,  0.00000000000000 ]
      - [ -0.00000000000520,  0.00000000000000 ]
    - # atom 2
      - [ -0.22335499633133,  0.00000000000000 ]
      - [  0.26556590397983,  0.00000000000000 ]
      - [ -0.00000000001093,  0.00000000000000 ]
    - # atom 3
      - [  0.18862578774773,  0.00000000000000 ]
      - [ -0.01377901925295,  0.00000000000000 ]
      - [ -0.00000000000253,  0.00000000000000 ]
    - # atom 4
      - [  0.02742920333410,  0.00000000000000 ]
      - [ -0.25226195167328,  0.00000000000000 ]
      - [ -0.00000000000559,  0.00000000000000 ]
    - # atom 5
      - [ -0.25849852204850,  0.00000000000000 ]
      - [ -0.22941467169266,  0.00000000000000 ]
      - [ -0.00000000001132,  0.00000000000000 ]
    - # atom 6
      - [ -0.38581206596166,  0.00000000000000 ]
      - [  0.02869905817820,  0.00000000000000 ]
      - [ -0.00000000001402,  0.00000000000000 ]
    - # atom 7
      - [  0.05512234454817,  0.00000000000000 ]
      - [  0.12498833081055,  0.00000000000000 ]
      - [ -0.00000000000081,  0.00000000000000 ]
    - # atom 8
      - [ -0.09250568794205,  0.00000000000000 ]
      - [  0.13568076883985,  0.00000000000000 ]
      - [ -0.00000000000376,  0.00000000000000 ]
    - # atom 9
      - [  0.03731658014903,  0.00000000000000 ]
      - [ -0.13102454223276,  0.00000000000000 ]
      - [ -0.00000000000099,  0.00000000000000 ]
    - # atom 10
      - [ -0.17646892146009,  0.00000000000000 ]
      - [  0.01296789082436,  0.00000000000000 ]
      - [ -0.00000000000536,  0.00000000000000 ]
    - # atom 11
      - [ -0.11105199433012,  0.00000000000000 ]
      - [ -0.12051553099811,  0.00000000000000 ]
      - [ -0.00000000000397,  0.00000000000000 ]
    - # atom 12
      - [  0.16100533509557,  0.00000000000000 ]
      - [  0.03872168583525,  0.00000000000000 ]
      - [  0.00000000000138,  0.00000000000000 ]
    - # atom 13
      - [  0.54158573902521,  0.00000000000000 ]
      - [ -0.05375722457283,  0.00000000000000 ]
      - [  0.00000000000358,  0.00000000000000 ]
  - # 3
    frequency:    -0.1021752924
    eigenvector:
    - # atom 1
      - [ -0.00000000000000,  0.00000000000000 ]
      - [ -0.00000000000588,  0.00000000000000 ]
      - [  0.14950767303420,  0.00000000000000 ]
    - # atom 2
      - [  0.00000000000465,  0.00000000000000 ]
      - [ -0.00000000000620,  0.00000000000000 ]
      - [ -0.18975129031331,  0.00000000000000 ]
    - # atom 3
      - [ -0.00000000000203,  0.00000000000000 ]
      - [ -0.00000000000167,  0.00000000000000 ]
      - [  0.22322951843443,  0.00000000000000 ]
    - # atom 4
      - [  0.00000000000058,  0.00000000000000 ]
      - [  0.00000000000219,  0.00000000000000 ]
      - [ -0.04278234047158,  0.00000000000000 ]
    - # atom 5
      - [  0.00000000000521,  0.00000000000000 ]
      - [  0.00000000000182,  0.00000000000000 ]
      - [ -0.38040905901808,  0.00000000000000 ]
    - # atom 6
      - [  0.00000000000728,  0.00000000000000 ]
      - [ -0.00000000000236,  0.00000000000000 ]
      - [ -0.45641987203729,  0.00000000000000 ]
    - # atom 7
      - [ -0.00000000000060,  0.00000000000000 ]
      - [ -0.00000000000258,  0.00000000000000 ]
      - [  0.10360506218063,  0.00000000000000 ]
    - # atom 8
      - [  0.00000000000180,  0.00000000000000 ]
      - [ -0.00000000000275,  0.00000000000000 ]
      - [ -0.07103535790226,  0.00000000000000 ]
    - # atom 9
      - [ -0.00000000000031,  0.00000000000000 ]
      - [  0.00000000000157,  0.00000000000000 ]
      - [  0.00569044076317,  0.00000000000000 ]
    - # atom 10
      - [  0.00000000000316,  0.00000000000000 ]
      - [ -0.00000000000076,  0.00000000000000 ]
      - [ -0.20869357164036,  0.00000000000000 ]
    - # atom 11
      - [  0.00000000000210,  0.00000000000000 ]
      - [  0.00000000000140,  0.00000000000000 ]
      - [ -0.16999180593379,  0.00000000000000 ]
    - # atom 12
      - [ -0.00000000000231,  0.00000000000000 ]
      - [ -0.00000000000118,  0.00000000000000 ]
      - [  0.20686259704680,  0.00000000000000 ]
    - # atom 13
      - [ -0.00000000000760,  0.00000000000000 ]
      - [ -0.00000000000132,  0.00000000000000 ]
      - [  0.63709908029652,  0.00000000000000 ]
  - # 4
    frequency:    -0.0000007877
    eigenvector:
    - # atom 1
      - [  0.00000000001122,  0.00000000000000 ]
      - [  0.27364239630303,  0.00000000000000 ]
      - [  0.22965673153645,  0.00000000000000 ]
    - # atom 2
      - [  0.00000000000715,  0.00000000000000 ]
      - [  0.27364239630331,  0.00000000000000 ]
      - [  0.22965673153586,  0.00000000000000 ]
    - # atom 3
      - [  0.00000000001301,  0.00000000000000 ]
      - [  0.27364239629934,  0.00000000000000 ]
      - [  0.22965673153826,  0.00000000000000 ]
    - # atom 4
      - [  0.00000000001072,  0.00000000000000 ]
      - [  0.27364239629595,  0.00000000000000 ]
      - [  0.22965673153947,  0.00000000000000 ]
    - # atom 5
      - [  0.00000000000665,  0.00000000000000 ]
      - [  0.27364239629627,  0.00000000000000 ]
      - [  0.22965673153886,  0.00000000000000 ]
    - # atom 6
      - [  0.00000000000484,  0.00000000000000 ]
      - [  0.27364239629994,  0.00000000000000 ]
      - [  0.22965673153705,  0.00000000000000 ]
    - # atom 7
      - [  0.00000000000378,  0.00000000000000 ]
      - [  0.07927140678612,  0.00000000000000 ]
      - [  0.06652920904254,  0.00000000000000 ]
    - # atom 8
      - [  0.00000000000168,  0.00000000000000 ]
      - [  0.07927140678627,  0.00000000000000 ]
      - [  0.06652920904223,  0.00000000000000 ]
    - # atom 9
      - [  0.00000000000352,  0.00000000000000 ]
      - [  0.07927140678248,  0.00000000000000 ]
      - [  0.06652920904409,  0.00000000000000 ]
    - # atom 10
      - [  0.00000000000048,  0.00000000000000 ]
      - [  0.07927140678452,  0.00000000000000 ]
      - [  0.06652920904285,  0.00000000000000 ]
    - # atom 11
      - [  0.00000000000141,  0.00000000000000 ]
      - [  0.07927140678263,  0.00000000000000 ]
      - [  0.06652920904378,  0.00000000000000 ]
    - # atom 12
      - [  0.00000000000528,  0.00000000000000 ]
      - [  0.07927140678489,  0.00000000000000 ]
      - [  0.06652920904324,  0.00000000000000 ]
    - # atom 13
      - [  0.00000000001962,  0.00000000000000 ]
      - [  0.31582832232298,  0.00000000000000 ]
      - [  0.26506163230969,  0.00000000000000 ]
  - # 5
    frequency:     0.0000006151
    eigenvector:
    - # atom 1
      - [ -0.00000000000247,  0.00000000000000 ]
      - [ -0.22965673153514,  0.00000000000000 ]
      - [  0.27364239629703,  0.00000000000000 ]
    - # atom 2
      - [ -0.00000000000565,  0.00000000000000 ]
      - [ -0.22965673153492,  0.00000000000000 ]
      - [  0.27364239629920,  0.00000000000000 ]
    - # atom 3
      - [ -0.00000000000107,  0.00000000000000 ]
      - [ -0.22965673153802,  0.00000000000000 ]
      - [  0.27364239629811,  0.00000000000000 ]
    - # atom 4
      - [ -0.00000000000286,  0.00000000000000 ]
      - [ -0.22965673154066,  0.00000000000000 ]
      - [  0.27364239630135,  0.00000000000000 ]
    - # atom 5
      - [ -0.00000000000603,  0.00000000000000 ]
      - [ -0.22965673154041,  0.00000000000000 ]
      - [  0.27364239630349,  0.00000000000000 ]
    - # atom 6
      - [ -0.00000000000745,  0.00000000000000 ]
      - [ -0.22965673153754,  0.00000000000000 ]
      - [  0.27364239630244,  0.00000000000000 ]
    - # atom 7
      - [ -0.00000000000031,  0.00000000000000 ]
      - [ -0.06652920904184,  0.00000000000000 ]
      - [  0.07927140678288,  0.00000000000000 ]
    - # atom 8
      - [ -0.00000000000194,  0.00000000000000 ]
      - [ -0.06652920904172,  0.00000000000000 ]
      - [  0.07927140678400,  0.00000000000000 ]
    - # atom 9
      - [ -0.00000000000050,  0.00000000000000 ]
      - [ -0.06652920904467,  0.00000000000000 ]
      - [  0.07927140678510,  0.00000000000000 ]
    - # atom 10
      - [ -0.00000000000287,  0.00000000000000 ]
      - [ -0.06652920904308,  0.00000000000000 ]
      - [  0.07927140678567,  0.00000000000000 ]
    - # atom 11
      - [ -0.00000000000215,  0.00000000000000 ]
      - [ -0.06652920904456,  0.00000000000000 ]
      - [  0.07927140678622,  0.00000000000000 ]
    - # atom 12
      - [  0.00000000000087,  0.00000000000000 ]
      - [ -0.06652920904279,  0.00000000000000 ]
      - [  0.07927140678270,  0.00000000000000 ]
    - # atom 13
      - [  0.00000000000235,  0.00000000000000 ]
      - [ -0.26506163230907,  0.00000000000000 ]
      - [  0.31582832231976,  0.00000000000000 ]
  - # 6
    frequency:     0.0000009234
    eigenvector:
    - # atom 1
      - [ -0.35724274015382,  0.00000000000000 ]
      - [  0.00000000001317,  0.00000000000000 ]
      - [  0.00000000000441,  0.00000000000000 ]
    - # atom 2
      - [ -0.35724274015758,  0.00000000000000 ]
      - [  0.00000000001343,  0.00000000000000 ]
      - [  0.00000000000339,  0.00000000000000 ]
    - # atom 3
      - [ -0.35724274015218,  0.00000000000000 ]
      - [  0.00000000000976,  0.00000000000000 ]
      - [  0.00000000000488,  0.00000000000000 ]
    - # atom 4
      - [ -0.35724274015429,  0.00000000000000 ]
      - [  0.00000000000664,  0.00000000000000 ]
      - [  0.00000000000434,  0.00000000000000 ]
    - # atom 5
      - [ -0.35724274015805,  0.00000000000000 ]
      - [  0.00000000000694,  0.00000000000000 ]
      - [  0.00000000000332,  0.00000000000000 ]
    - # atom 6
      - [ -0.35724274015971,  0.00000000000000 ]
      - [  0.00000000001032,  0.00000000000000 ]
      - [  0.00000000000285,  0.00000000000000 ]
    - # atom 7
      - [ -0.10348957237005,  0.00000000000000 ]
      - [  0.00000000000452,  0.00000000000000 ]
      - [  0.00000000000140,  0.00000000000000 ]
    - # atom 8
      - [ -0.10348957237198,  0.00000000000000 ]
      - [  0.00000000000466,  0.00000000000000 ]
      - [  0.00000000000088,  0.00000000000000 ]
    - # atom 9
      - [ -0.10348957237028,  0.00000000000000 ]
      - [  0.00000000000116,  0.00000000000000 ]
      - [  0.00000000000137,  0.00000000000000 ]
    - # atom 10
      - [ -0.10348957237309,  0.00000000000000 ]
      - [  0.00000000000305,  0.00000000000000 ]
      - [  0.00000000000060,  0.00000000000000 ]
    - # atom 11
      - [ -0.10348957237223,  0.00000000000000 ]
      - [  0.00000000000130,  0.00000000000000 ]
      - [  0.00000000000084,  0.00000000000000 ]
    - # atom 12
      - [ -0.10348957236866,  0.00000000000000 ]
      - [  0.00000000000339,  0.00000000000000 ]
      - [  0.00000000000179,  0.00000000000000 ]
    - # atom 13
      - [ -0.41231686613332,  0.00000000000000 ]
      - [  0.00000000001077,  0.00000000000000 ]
      - [  0.00000000000678,  0.00000000000000 ]
  - # 7
    frequency:     6.5566934319
    eigenvector:
    - # atom 1
      - [  0.00000000000000,  0.00000000000000 ]
      - [ -0.00000000000001,  0.00000000000000 ]
      - [  0.41915204827017,  0.00000000000000 ]
    - # atom 2
      - [  0.00000000000000,  0.00000000000000 ]
      - [ -0.00000000000000,  0.00000000000000 ]
      - [  0.00152694565332,  0.00000000000000 ]
    - # atom 3
      - [ -0.00000000000000,  0.00000000000000 ]
      - [ -0.00000000000000,  0.00000000000000 ]
      - [  0.22113401601644,  0.00000000000000 ]
    - # atom 4
      - [  0.00000000000000,  0.00000000000000 ]
      - [  0.00000000000000,  0.00000000000000 ]
      - [  0.41344647285830,  0.00000000000000 ]
    - # atom 5
      - [  0.00000000000000,  0.00000000000000 ]
      - [  0.00000000000000,  0.00000000000000 ]
      - [  0.00693362212421,  0.00000000000000 ]
    - # atom 6
      - [  0.00000000000000,  0.00000000000000 ]
      - [ -0.00000000000000,  0.00000000000000 ]
      - [ -0.42244097505951,  0.00000000000000 ]
    - # atom 7
      - [ -0.00000000000000,  0.00000000000000 ]
      - [ -0.00000000000000,  0.00000000000000 ]
      - [  0.17253693126681,  0.00000000000000 ]
    - # atom 8
      - [  0.00000000000000,  0.00000000000000 ]
      - [ -0.00000000000000,  0.00000000000000 ]
      - [ -0.02259166282505,  0.00000000000000 ]
    - # atom 9
      - [  0.00000000000000,  0.00000000000000 ]
      - [  0.00000000000000,  0.00000000000000 ]
      - [  0.15821127105744,  0.00000000000000 ]
    - # atom 10
      - [  0.00000000000000,  0.00000000000000 ]
      - [ -0.00000000000000,  0.00000000000000 ]
      - [ -0.27022085737346,  0.00000000000000 ]
    - # atom 11
      - [  0.00000000000000,  0.00000000000000 ]
      - [  0.00000000000000,  0.00000000000000 ]
      - [ -0.02198696749397,  0.00000000000000 ]
    - # atom 12
      - [ -0.00000000000000,  0.00000000000000 ]
      - [ -0.00000000000000,  0.00000000000000 ]
      - [ -0.19259486358797,  0.00000000000000 ]
    - # atom 13
      - [ -0.00000000000000,  0.00000000000000 ]
      - [ -0.00000000000000,  0.00000000000000 ]
      - [ -0.50996160172595,  0.00000000000000 ]
  - # 8
    frequency:    10.9896114957
    eigenvector:
    - # atom 1
      - [  0.00000000000000,  0.00000000000000 ]
      - [  0.00000000000000,  0.00000000000000 ]
      - [ -0.02278294147903,  0.00000000000000 ]
    - # atom 2
      - [  0.00000000000000,  0.00000000000000 ]
      - [ -0.00000000000000,  0.00000000000000 ]
      - [ -0.00260495403359,  0.00000000000000 ]
    - # atom 3
      - [ -0.00000000000000,  0.00000000000000 ]
      - [  0.00000000000000,  0.00000000000000 ]
      - [  0.01253484875490,  0.00000000000000 ]
    - # atom 4
      - [ -0.00000000000000,  0.00000000000000 ]
      - [ -0.00000000000000,  0.00000000000000 ]
      - [  0.06944514843939,  0.00000000000000 ]
    - # atom 5
      - [  0.00000000000000,  0.00000000000000 ]
      - [  0.00000000000000,  0.00000000000000 ]
      - [  0.02459284498557,  0.00000000000000 ]
    - # atom 6
      - [  0.00000000000000,  0.00000000000000 ]
      - [ -0.00000000000000,  0.00000000000000 ]
      - [ -0.02267827318078,  0.00000000000000 ]
    - # atom 7
      - [ -0.00000000000000,  0.00000000000000 ]
      - [ -0.00000000000000,  0.00000000000000 ]
      - [ -0.06450587422001,  0.00000000000000 ]
    - # atom 8
      - [  0.00000000000000,  0.00000000000000 ]
      - [  0.00000000000000,  0.00000000000000 ]
      - [ -0.01397235160704,  0.00000000000000 ]
    - # atom 9
      - [ -0.00000000000000,  0.00000000000000 ]
      - [ -0.00000000000000,  0.00000000000000 ]
      - [  0.06821326019995,  0.00000000000000 ]
    - # atom 10
      - [ -0.00000000000000,  0.00000000000000 ]
      - [ -0.00000000000000,  0.00000000000000 ]
      - [ -0.01133655676287,  0.00000000000000 ]
    - # atom 11
      - [ -0.00000000000000,  0.00000000000000 ]
      - [ -0.00000000000000,  0.00000000000000 ]
      - [  0.03224132220800,  0.00000000000000 ]
    - # atom 12
      - [ -0.00000000000000,  0.00000000000000 ]
      - [  0.00000000000000,  0.00000000000000 ]
      - [  0.94782120737542,  0.00000000000000 ]
    - # atom 13
      - [ -0.00000000000000,  0.00000000000000 ]
      - [  0.00000000000000,  0.00000000000000 ]
      - [ -0.29126095482411,  0.00000000000000 ]
  - # 9
    frequency:    11.7649969894
    eigenvector:
    - # atom 1
      - [  0.34148131096178,  0.00000000000000 ]
      - [  0.06247646619543,  0.00000000000000 ]
      - [  0.00000000000016,  0.00000000000000 ]
    - # atom 2
      - [ -0.03487825405287,  0.00000000000000 ]
      - [  0.15913929086202,  0.00000000000000 ]
      - [ -0.00000000000016,  0.00000000000000 ]
    - # atom 3
      - [  0.34021470870457,  0.00000000000000 ]
      - [ -0.01163709201704,  0.00000000000000 ]
      - [ -0.00000000000001,  0.00000000000000 ]
    - # atom 4
      - [  0.31301222083528,  0.00000000000000 ]
      - [ -0.11196960124207,  0.00000000000000 ]
      - [ -0.00000000000016,  0.00000000000000 ]
    - # atom 5
      - [ -0.06316927011723,  0.00000000000000 ]
      - [ -0.15054449739037,  0.00000000000000 ]
      - [  0.00000000000016,  0.00000000000000 ]
    - # atom 6
      - [ -0.14554984999321,  0.00000000000000 ]
      - [  0.00685829024479,  0.00000000000000 ]
      - [  0.00000000000000,  0.00000000000000 ]
    - # atom 7
      - [  0.14134601597278,  0.00000000000000 ]
      - [  0.08385063421560,  0.00000000000000 ]
      - [  0.00000000000010,  0.00000000000000 ]
    - # atom 8
      - [ -0.04029051927285,  0.00000000000000 ]
      - [  0.11138633479265,  0.00000000000000 ]
      - [ -0.00000000000010,  0.00000000000000 ]
    - # atom 9
      - [  0.13277628826469,  0.00000000000000 ]
      - [ -0.11544210136319,  0.00000000000000 ]
      - [ -0.00000000000009,  0.00000000000000 ]
    - # atom 10
      - [ -0.07902358247549,  0.00000000000000 ]
      - [  0.00475721113507,  0.00000000000000 ]
      - [ -0.00000000000000,  0.00000000000000 ]
    - # atom 11
      - [ -0.05607846159035,  0.00000000000000 ]
      - [ -0.10106386306661,  0.00000000000000 ]
      - [  0.00000000000010,  0.00000000000000 ]
    - # atom 12
      - [ -0.25906942478647,  0.00000000000000 ]
      - [ -0.19626920082087,  0.00000000000000 ]
      - [  0.00000000000002,  0.00000000000000 ]
    - # atom 13
      - [ -0.61053873708213,  0.00000000000000 ]
      - [  0.09298295596799,  0.00000000000000 ]
      - [ -0.00000000000000,  0.00000000000000 ]
  - # 10
    frequency:    12.1663247368
    eigenvector:
    - # atom 1
      - [  0.00000000000013,  0.00000000000000 ]
      - [  0.00000000000002,  0.00000000000000 ]
      - [ -0.42200319059127,  0.00000000000000 ]
    - # atom 2
      - [ -0.00000000000001,  0.00000000000000 ]
      - [  0.00000000000006,  0.00000000000000 ]
      - [  0.42062993727138,  0.00000000000000 ]
    - # atom 3
      - [  0.00000000000013,  0.00000000000000 ]
      - [ -0.00000000000000,  0.00000000000000 ]
      - [  0.01027255748051,  0.00000000000000 ]
    - # atom 4
      - [  0.00000000000012,  0.00000000000000 ]
      - [ -0.00000000000004,  0.00000000000000 ]
      - [  0.42744580069493,  0.00000000000000 ]
    - # atom 5
      - [ -0.00000000000002,  0.00000000000000 ]
      - [ -0.00000000000006,  0.00000000000000 ]
      - [ -0.42637611805840,  0.00000000000000 ]
    - # atom 6
      - [ -0.00000000000005,  0.00000000000000 ]
      - [  0.00000000000000,  0.00000000000000 ]
      - [ -0.00138180158532,  0.00000000000000 ]
    - # atom 7
      - [  0.00000000000005,  0.00000000000000 ]
      - [  0.00000000000003,  0.00000000000000 ]
      - [ -0.25917349031348,  0.00000000000000 ]
    - # atom 8
      - [ -0.00000000000001,  0.00000000000000 ]
      - [  0.00000000000004,  0.00000000000000 ]
      - [  0.27067310339989,  0.00000000000000 ]
    - # atom 9
      - [  0.00000000000005,  0.00000000000000 ]
      - [ -0.00000000000004,  0.00000000000000 ]
      - [  0.24952888026781,  0.00000000000000 ]
    - # atom 10
      - [ -0.00000000000003,  0.00000000000000 ]
      - [  0.00000000000000,  0.00000000000000 ]
      - [  0.00250060930728,  0.00000000000000 ]
    - # atom 11
      - [ -0.00000000000002,  0.00000000000000 ]
      - [ -0.00000000000004,  0.00000000000000 ]
      - [ -0.27417767328864,  0.00000000000000 ]
    - # atom 12
      - [ -0.00000000000010,  0.00000000000000 ]
      - [ -0.00000000000007,  0.00000000000000 ]
      - [ -0.04932276510343,  0.00000000000000 ]
    - # atom 13
      - [ -0.00000000000023,  0.00000000000000 ]
      - [  0.00000000000004,  0.00000000000000 ]
      - [  0.00761234519303,  0.00000000000000 ]
  - # 11
    frequency:    14.8675911639
    eigenvector:
    - # atom 1
      - [  0.00000000000000,  0.00000000000000 ]
      - [ -0.00000000000000,  0.00000000000000 ]
      - [ -0.03009973251213,  0.00000000000000 ]
    - # atom 2
      - [ -0.00000000000000,  0.00000000000000 ]
      - [ -0.00000000000000,  0.00000000000000 ]
      - [  0.25790724829667,  0.00000000000000 ]
    - # atom 3
      - [ -0.00000000000000,  0.00000000000000 ]
      - [ -0.00000000000000,  0.00000000000000 ]
      - [ -0.60413000583631,  0.00000000000000 ]
    - # atom 4
      - [  0.00000000000000,  0.00000000000000 ]
      - [ -0.00000000000000,  0.00000000000000 ]
      - [ -0.01589887362026,  0.00000000000000 ]
    - # atom 5
      - [  0.00000000000000,  0.00000000000000 ]
      - [  0.00000000000000,  0.00000000000000 ]
      - [  0.24682653175883,  0.00000000000000 ]
    - # atom 6
      - [  0.00000000000000,  0.00000000000000 ]
      - [ -0.00000000000000,  0.00000000000000 ]
      - [ -0.37929756059200,  0.00000000000000 ]
    - # atom 7
      - [  0.00000000000000,  0.00000000000000 ]
      - [ -0.00000000000000,  0.00000000000000 ]
      - [  0.24664868127799,  0.00000000000000 ]
    - # atom 8
      - [ -0.00000000000000,  0.00000000000000 ]
      - [ -0.00000000000000,  0.00000000000000 ]
      - [  0.31101521035570,  0.00000000000000 ]
    - # atom 9
      - [  0.00000000000000,  0.00000000000000 ]
      - [ -0.00000000000000,  0.00000000000000 ]
      - [  0.24485054129866,  0.00000000000000 ]
    - # atom 10
      - [ -0.00000000000000,  0.00000000000000 ]
      - [ -0.00000000000000,  0.00000000000000 ]
      - [ -0.11109512048656,  0.00000000000000 ]
    - # atom 11
      - [  0.00000000000000,  0.00000000000000 ]
      - [  0.00000000000000,  0.00000000000000 ]
      - [  0.30562194140139,  0.00000000000000 ]
    - # atom 12
      - [  0.00000000000000,  0.00000000000000 ]
      - [ -0.00000000000000,  0.00000000000000 ]
      - [  0.04501047411530,  0.00000000000000 ]
    - # atom 13
      - [  0.00000000000000,  0.00000000000000 ]
      - [ -0.00000000000000,  0.00000000000000 ]
      - [  0.19305797763482,  0.00000000000000 ]
  - # 12
    frequency:    15.5416431250
    eigenvector:
    - # atom 1
      - [ -0.20434158839773,  0.00000000000000 ]
      - [  0.09765822002877,  0.00000000000000 ]
      - [ -0.00000000000000,  0.00000000000000 ]
    - # atom 2
      - [ -0.18673707711109,  0.00000000000000 ]
      - [  0.18196202103423,  0.00000000000000 ]
      - [ -0.00000000000000,  0.00000000000000 ]
    - # atom 3
      - [ -0.02337111036791,  0.00000000000000 ]
      - [ -0.35384533368634,  0.00000000000000 ]
      - [ -0.00000000000000,  0.00000000000000 ]
    - # atom 4
      - [  0.22932313280622,  0.00000000000000 ]
      - [  0.06502256482504,  0.00000000000000 ]
      - [  0.00000000000000,  0.00000000000000 ]
    - # atom 5
      - [  0.21098207788753,  0.00000000000000 ]
      - [  0.15215210750382,  0.00000000000000 ]
      - [ -0.00000000000000,  0.00000000000000 ]
    - # atom 6
      - [  0.03128298092297,  0.00000000000000 ]
      - [  0.47194301988918,  0.00000000000000 ]
      - [  0.00000000000000,  0.00000000000000 ]
    - # atom 7
      - [  0.00334874672838,  0.00000000000000 ]
      - [  0.11818833917598,  0.00000000000000 ]
      - [  0.00000000000000,  0.00000000000000 ]
    - # atom 8
      - [ -0.01642986546101,  0.00000000000000 ]
      - [ -0.02440786611365,  0.00000000000000 ]
      - [  0.00000000000000,  0.00000000000000 ]
    - # atom 9
      - [  0.01311940466158,  0.00000000000000 ]
      - [  0.12112892933938,  0.00000000000000 ]
      - [  0.00000000000000,  0.00000000000000 ]
    - # atom 10
      - [  0.00859374540431,  0.00000000000000 ]
      - [  0.13683677267423,  0.00000000000000 ]
      - [  0.00000000000000,  0.00000000000000 ]
    - # atom 11
      - [  0.01117011812888,  0.00000000000000 ]
      - [ -0.02888902673716,  0.00000000000000 ]
      - [ -0.00000000000000,  0.00000000000000 ]
    - # atom 12
      - [ -0.00651860160575,  0.00000000000000 ]
      - [ -0.13597975750028,  0.00000000000000 ]
      - [  0.00000000000000,  0.00000000000000 ]
    - # atom 13
      - [ -0.05284041154615,  0.00000000000000 ]
      - [ -0.57966529645253,  0.00000000000000 ]
      - [  0.00000000000000,  0.00000000000000 ]
  - # 13
    frequency:    18.3015958451
    eigenvector:
    - # atom 1
      - [  0.21288388020371,  0.00000000000000 ]
      - [ -0.35319886524355,  0.00000000000000 ]
      - [ -0.00000000000001,  0.00000000000000 ]
    - # atom 2
      - [ -0.36327792650896,  0.00000000000000 ]
      - [ -0.34919155618317,  0.00000000000000 ]
      - [ -0.00000000000000,  0.00000000000000 ]
    - # atom 3
      - [  0.16172040818202,  0.00000000000000 ]
      - [ -0.01285277668933,  0.00000000000000 ]
      - [  0.00000000000000,  0.00000000000000 ]
    - # atom 4
      - [  0.26513401487094,  0.00000000000000 ]
      - [  0.31609062589325,  0.00000000000000 ]
      - [  0.00000000000000,  0.00000000000000 ]
    - # atom 5
      - [ -0.30488309191529,  0.00000000000000 ]
      - [  0.39384140553986,  0.00000000000000 ]
      - [ -0.00000000000000,  0.00000000000000 ]
    - # atom 6
      - [ -0.17334870760093,  0.00000000000000 ]
      - [  0.01246397095408,  0.00000000000000 ]
      - [ -0.00000000000000,  0.00000000000000 ]
    - # atom 7
      - [  0.09562530248859,  0.00000000000000 ]
      - [ -0.05004734764667,  0.00000000000000 ]
      - [ -0.00000000000000,  0.00000000000000 ]
    - # atom 8
      - [ -0.12839582315391,  0.00000000000000 ]
      - [ -0.05222350209981,  0.00000000000000 ]
      - [  0.00000000000000,  0.00000000000000 ]
    - # atom 9
      - [  0.10199176133230,  0.00000000000000 ]
      - [  0.03900688901902,  0.00000000000000 ]
      - [  0.00000000000000,  0.00000000000000 ]
    - # atom 10
      - [  0.12861736578024,  0.00000000000000 ]
      - [ -0.00926523471937,  0.00000000000000 ]
      - [  0.00000000000000,  0.00000000000000 ]
    - # atom 11
      - [ -0.11937253306050,  0.00000000000000 ]
      - [  0.06753687851264,  0.00000000000000 ]
      - [ -0.00000000000000,  0.00000000000000 ]
    - # atom 12
      - [  0.04371048663872,  0.00000000000000 ]