phonopy:
  version: 1.12.2
  configuration:
    displacement_distance: "0.01"
    cell_filename: "../POSCAR"
    create_displacements: ".true."
    dim: "1 1 1"

supercell_matrix:
- [   1,   0,   0 ]
- [   0,   1,   0 ]
- [   0,   0,   1 ]

space_group:
  type: "Pm"
  number: 6
  Hall_symbol: "P -2y"

primitive_cell:
  lattice:
  - [    19.469690000000000,     0.000000000000000,     0.000000000000000 ] # a
  - [     0.000000000000000,    20.616230000000002,     0.000000000000000 ] # b
  - [     0.000000000000000,     0.000000000000000,    15.000000000000000 ] # c
  points:
  - symbol: C  # 1
    coordinates: [  0.440458135467382,  0.521462008373666,  0.500000000000000 ]
    mass: 12.010700
  - symbol: C  # 2
    coordinates: [  0.435471744743399,  0.453896877713960,  0.500000000000000 ]
    mass: 12.010700
  - symbol: C  # 3
    coordinates: [  0.505190513085408,  0.551027762399455,  0.500000000000000 ]
    mass: 12.010700
  - symbol: C  # 4
    coordinates: [  0.564751946807799,  0.513004201025657,  0.500000000000000 ]
    mass: 12.010700
  - symbol: C  # 5
    coordinates: [  0.559045434979822,  0.445587552541795,  0.500000000000000 ]
    mass: 12.010700
  - symbol: C  # 6
    coordinates: [  0.494624275558127,  0.415580787670565,  0.500000000000000 ]
    mass: 12.010700
  - symbol: H  # 7
    coordinates: [  0.394127713133017,  0.551397598840611,  0.500000000000000 ]
    mass: 1.007940
  - symbol: H  # 8
    coordinates: [  0.384833755608080,  0.431269015549485,  0.500000000000000 ]
    mass: 1.007940
  - symbol: H  # 9
    coordinates: [  0.614682163229291,  0.536903175731434,  0.500000000000000 ]
    mass: 1.007940
  - symbol: H  # 10
    coordinates: [  0.490609437648058,  0.362852716104316,  0.500000000000000 ]
    mass: 1.007940
  - symbol: H  # 11
    coordinates: [  0.605609579079735,  0.416163376770230,  0.500000000000000 ]
    mass: 1.007940
  - symbol: H  # 12
    coordinates: [  0.468309424025795,  0.637700528981210,  0.500000000000000 ]
    mass: 1.007940
  - symbol: O  # 13
    coordinates: [  0.513377095857408,  0.617265067416081,  0.500000000000000 ]
    mass: 15.999400
  reciprocal_lattice: # without 2pi
  - [     0.051361886090636,     0.000000000000000,     0.000000000000000 ] # a*
  - [     0.000000000000000,     0.048505473600168,     0.000000000000000 ] # b*
  - [     0.000000000000000,     0.000000000000000,     0.066666666666667 ] # c*

unit_cell:
  lattice:
  - [    19.469690000000000,     0.000000000000000,     0.000000000000000 ] # a
  - [     0.000000000000000,    20.616230000000002,     0.000000000000000 ] # b
  - [     0.000000000000000,     0.000000000000000,    15.000000000000000 ] # c
  points:
  - symbol: C  # 1
    coordinates: [  0.440458135467382,  0.521462008373666,  0.500000000000000 ]
    mass: 12.010700
    reduced_to: 1
  - symbol: C  # 2
    coordinates: [  0.435471744743399,  0.453896877713960,  0.500000000000000 ]
    mass: 12.010700
    reduced_to: 2
  - symbol: C  # 3
    coordinates: [  0.505190513085408,  0.551027762399455,  0.500000000000000 ]
    mass: 12.010700
    reduced_to: 3
  - symbol: C  # 4
    coordinates: [  0.564751946807799,  0.513004201025657,  0.500000000000000 ]
    mass: 12.010700
    reduced_to: 4
  - symbol: C  # 5
    coordinates: [  0.559045434979822,  0.445587552541795,  0.500000000000000 ]
    mass: 12.010700
    reduced_to: 5
  - symbol: C  # 6
    coordinates: [  0.494624275558127,  0.415580787670565,  0.500000000000000 ]
    mass: 12.010700
    reduced_to: 6
  - symbol: H  # 7
    coordinates: [  0.394127713133017,  0.551397598840611,  0.500000000000000 ]
    mass: 1.007940
    reduced_to: 7
  - symbol: H  # 8
    coordinates: [  0.384833755608080,  0.431269015549485,  0.500000000000000 ]
    mass: 1.007940
    reduced_to: 8
  - symbol: H  # 9
    coordinates: [  0.614682163229291,  0.536903175731434,  0.500000000000000 ]
    mass: 1.007940
    reduced_to: 9
  - symbol: H  # 10
    coordinates: [  0.490609437648058,  0.362852716104316,  0.500000000000000 ]
    mass: 1.007940
    reduced_to: 10
  - symbol: H  # 11
    coordinates: [  0.605609579079735,  0.416163376770230,  0.500000000000000 ]
    mass: 1.007940
    reduced_to: 11
  - symbol: H  # 12
    coordinates: [  0.468309424025795,  0.637700528981210,  0.500000000000000 ]
    mass: 1.007940
    reduced_to: 12
  - symbol: O  # 13
    coordinates: [  0.513377095857408,  0.617265067416081,  0.500000000000000 ]
    mass: 15.999400
    reduced_to: 13

supercell:
  lattice:
  - [    19.469690000000000,     0.000000000000000,     0.000000000000000 ] # a
  - [     0.000000000000000,    20.616230000000002,     0.000000000000000 ] # b
  - [     0.000000000000000,     0.000000000000000,    15.000000000000000 ] # c
  points:
  - symbol: C  # 1
    coordinates: [  0.440458135467382,  0.521462008373666,  0.500000000000000 ]
    mass: 12.010700
    reduced_to: 1
  - symbol: C  # 2
    coordinates: [  0.435471744743399,  0.453896877713960,  0.500000000000000 ]
    mass: 12.010700
    reduced_to: 2
  - symbol: C  # 3
    coordinates: [  0.505190513085408,  0.551027762399455,  0.500000000000000 ]
    mass: 12.010700
    reduced_to: 3
  - symbol: C  # 4
    coordinates: [  0.564751946807799,  0.513004201025657,  0.500000000000000 ]
    mass: 12.010700
    reduced_to: 4
  - symbol: C  # 5
    coordinates: [  0.559045434979822,  0.445587552541795,  0.500000000000000 ]
    mass: 12.010700
    reduced_to: 5
  - symbol: C  # 6
    coordinates: [  0.494624275558127,  0.415580787670565,  0.500000000000000 ]
    mass: 12.010700
    reduced_to: 6
  - symbol: H  # 7
    coordinates: [  0.394127713133017,  0.551397598840611,  0.500000000000000 ]
    mass: 1.007940
    reduced_to: 7
  - symbol: H  # 8
    coordinates: [  0.384833755608080,  0.431269015549485,  0.500000000000000 ]
    mass: 1.007940
    reduced_to: 8
  - symbol: H  # 9
    coordinates: [  0.614682163229291,  0.536903175731434,  0.500000000000000 ]
    mass: 1.007940
    reduced_to: 9
  - symbol: H  # 10
    coordinates: [  0.490609437648058,  0.362852716104316,  0.500000000000000 ]
    mass: 1.007940
    reduced_to: 10
  - symbol: H  # 11
    coordinates: [  0.605609579079735,  0.416163376770230,  0.500000000000000 ]
    mass: 1.007940
    reduced_to: 11
  - symbol: H  # 12
    coordinates: [  0.468309424025795,  0.637700528981210,  0.500000000000000 ]
    mass: 1.007940
    reduced_to: 12
  - symbol: O  # 13
    coordinates: [  0.513377095857408,  0.617265067416081,  0.500000000000000 ]
    mass: 15.999400
    reduced_to: 13
