# epsilon and Z* of atoms 1 4
   2.51131038  -0.00000000   0.00000000   0.00000000   2.51131038   0.00000000   0.00000000   0.00000000   2.54446980
   2.98608274  -0.00000000   0.00000000   0.00000000   3.62216177  -0.31307170   0.00000000   0.27005881   3.42873615
  -1.31432123  -0.49116229  -0.30655936  -0.43509960  -1.98917803  -0.67569047  -0.24109600  -0.71781254  -1.71403317
