# epsilon and Z* of atoms 1 4
   2.51153723  -0.00000000   0.00000000   0.00000000   2.51153723   0.00000000   0.00000000   0.00000000   2.54471352
   2.98600262   0.00000000  -0.00000000   0.00000000   3.62213693  -0.31309884   0.00000000   0.27007119   3.42869838
  -1.31421500  -0.49119406  -0.30658232  -0.43512597  -1.98911844  -0.67574751  -0.24111451  -0.71786472  -1.71397535
