mesh: [     1,     1,     1 ]
nqpoint: 1      
reciprocal_lattice:
- [   0.05177567,   0.00000000,   0.00000000 ] # a*
- [   0.00000000,   0.05009265,   0.00000000 ] # b*
- [   0.00000000,   0.00000000,   0.06666667 ] # c*
natom:   12     
lattice:
- [    19.3140900000000002,     0.0000000000000000,     0.0000000000000000 ] # a
- [     0.0000000000000000,    19.9630100000000006,     0.0000000000000000 ] # b
- [     0.0000000000000000,     0.0000000000000000,    15.0000000000000000 ] # c
atoms:
- symbol: C  # 1
  position: [  0.4375674584519648,  0.5353955196219601,  0.5000000000000000 ]
  mass: 12.010700
- symbol: C  # 2
  position: [  0.4371004407158547,  0.4653870254803805,  0.5000000000000000 ]
  mass: 12.010700
- symbol: C  # 3
  position: [  0.5004666800110046,  0.5700082491454838,  0.5000000000000000 ]
  mass: 12.010700
- symbol: C  # 4
  position: [  0.5628995592841450,  0.5346129745196195,  0.5000000000000000 ]
  mass: 12.010700
- symbol: C  # 5
  position: [  0.5624325415480353,  0.4646049813045011,  0.5000000000000000 ]
  mass: 12.010700
- symbol: C  # 6
  position: [  0.4995333199889953,  0.4299917508545162,  0.5000000000000000 ]
  mass: 12.010700
- symbol: H  # 7
  position: [  0.3888373736372454,  0.5630219938805826,  0.5000000000000000 ]
  mass: 1.007940
- symbol: H  # 8
  position: [  0.5008312706391596,  0.6246512026493289,  0.5000000000000000 ]
  mass: 1.007940
- symbol: H  # 9
  position: [  0.3880063187498117,  0.4383710164372399,  0.5000000000000000 ]
  mass: 1.007940
- symbol: H  # 10
  position: [  0.4991687293608402,  0.3753487973506711,  0.5000000000000000 ]
  mass: 1.007940
- symbol: H  # 11
  position: [  0.6119936812501884,  0.5616294844892213,  0.5000000000000000 ]
  mass: 1.007940
- symbol: H  # 12
  position: [  0.6111626263627548,  0.4369780061194173,  0.5000000000000000 ]
  mass: 1.007940
supercell_matrix:
- [    1,    0,    0 ]
- [    0,    1,    0 ]
- [    0,    0,    1 ]

phonon:
- q-position: [    0.0000000,    0.0000000,    0.0000000 ]
  weight: 1    
  band:
  - # 1
    frequency:    -0.1586830115
    eigenvector:
    - # atom 1
      - [  0.00000000000000,  0.00000000000000 ]
      - [  0.00000000003849,  0.00000000000000 ]
      - [ -0.36223610648301,  0.00000000000000 ]
    - # atom 2
      - [ -0.00000000000101,  0.00000000000000 ]
      - [  0.00000000003850,  0.00000000000000 ]
      - [ -0.49580550597695,  0.00000000000000 ]
    - # atom 3
      - [  0.00000000000050,  0.00000000000000 ]
      - [  0.00000000003762,  0.00000000000000 ]
      - [  0.13358550666313,  0.00000000000000 ]
    - # atom 4
      - [ -0.00000000000001,  0.00000000000000 ]
      - [  0.00000000003675,  0.00000000000000 ]
      - [  0.49580550598524,  0.00000000000000 ]
    - # atom 5
      - [ -0.00000000000102,  0.00000000000000 ]
      - [  0.00000000003676,  0.00000000000000 ]
      - [  0.36223610649129,  0.00000000000000 ]
    - # atom 6
      - [ -0.00000000000152,  0.00000000000000 ]
      - [  0.00000000003763,  0.00000000000000 ]
      - [ -0.13358550665484,  0.00000000000000 ]
    - # atom 7
      - [  0.00000000000011,  0.00000000000000 ]
      - [  0.00000000001135,  0.00000000000000 ]
      - [ -0.18687916755387,  0.00000000000000 ]
    - # atom 8
      - [  0.00000000000037,  0.00000000000000 ]
      - [  0.00000000001090,  0.00000000000000 ]
      - [  0.06890854767471,  0.00000000000000 ]
    - # atom 9
      - [ -0.00000000000040,  0.00000000000000 ]
      - [  0.00000000001135,  0.00000000000000 ]
      - [ -0.25582143107520,  0.00000000000000 ]
    - # atom 10
      - [ -0.00000000000067,  0.00000000000000 ]
      - [  0.00000000001090,  0.00000000000000 ]
      - [ -0.06890854767230,  0.00000000000000 ]
    - # atom 11
      - [  0.00000000000011,  0.00000000000000 ]
      - [  0.00000000001045,  0.00000000000000 ]
      - [  0.25582143107761,  0.00000000000000 ]
    - # atom 12
      - [ -0.00000000000041,  0.00000000000000 ]
      - [  0.00000000001045,  0.00000000000000 ]
      - [  0.18687916755627,  0.00000000000000 ]
  - # 2
    frequency:    -0.1461123253
    eigenvector:
    - # atom 1
      - [  0.18347152466821,  0.00000000000000 ]
      - [  0.31301160951011,  0.00000000000000 ]
      - [ -0.00000000000136,  0.00000000000000 ]
    - # atom 2
      - [ -0.17931287775590,  0.00000000000000 ]
      - [  0.31542583398941,  0.00000000000000 ]
      - [  0.00000000000026,  0.00000000000000 ]
    - # atom 3
      - [  0.36280623398439,  0.00000000000000 ]
      - [ -0.00243334009738,  0.00000000000000 ]
      - [ -0.00000000000306,  0.00000000000000 ]
    - # atom 4
      - [  0.17931287777354,  0.00000000000000 ]
      - [ -0.31542583401915,  0.00000000000000 ]
      - [ -0.00000000000316,  0.00000000000000 ]
    - # atom 5
      - [ -0.18347152465057,  0.00000000000000 ]
      - [ -0.31301160953985,  0.00000000000000 ]
      - [ -0.00000000000154,  0.00000000000000 ]
    - # atom 6
      - [ -0.36280623396675,  0.00000000000000 ]
      - [  0.00243334006764,  0.00000000000000 ]
      - [  0.00000000000017,  0.00000000000000 ]
    - # atom 7
      - [  0.09462906338443,  0.00000000000000 ]
      - [  0.16145488172519,  0.00000000000000 ]
      - [ -0.00000000000037,  0.00000000000000 ]
    - # atom 8
      - [  0.18716078484675,  0.00000000000000 ]
      - [ -0.00123871231802,  0.00000000000000 ]
      - [ -0.00000000000125,  0.00000000000000 ]
    - # atom 9
      - [ -0.09250864510388,  0.00000000000000 ]
      - [  0.16269665274169,  0.00000000000000 ]
      - [  0.00000000000046,  0.00000000000000 ]
    - # atom 10
      - [ -0.18716078484164,  0.00000000000000 ]
      - [  0.00123871230941,  0.00000000000000 ]
      - [  0.00000000000042,  0.00000000000000 ]
    - # atom 11
      - [  0.09250864510899,  0.00000000000000 ]
      - [ -0.16269665275031,  0.00000000000000 ]
      - [ -0.00000000000130,  0.00000000000000 ]
    - # atom 12
      - [ -0.09462906337932,  0.00000000000000 ]
      - [ -0.16145488173380,  0.00000000000000 ]
      - [ -0.00000000000047,  0.00000000000000 ]
  - # 3
    frequency:    -0.0392853171
    eigenvector:
    - # atom 1
      - [  0.00000000000000,  0.00000000000000 ]
      - [ -0.00000000002517,  0.00000000000000 ]
      - [  0.36337147542506,  0.00000000000000 ]
    - # atom 2
      - [ -0.00000000000092,  0.00000000000000 ]
      - [ -0.00000000002516,  0.00000000000000 ]
      - [ -0.13199715051735,  0.00000000000000 ]
    - # atom 3
      - [  0.00000000000045,  0.00000000000000 ]
      - [ -0.00000000002597,  0.00000000000000 ]
      - [  0.49542465629078,  0.00000000000000 ]
    - # atom 4
      - [ -0.00000000000001,  0.00000000000000 ]
      - [ -0.00000000002675,  0.00000000000000 ]
      - [  0.13199715088190,  0.00000000000000 ]
    - # atom 5
      - [ -0.00000000000092,  0.00000000000000 ]
      - [ -0.00000000002674,  0.00000000000000 ]
      - [ -0.36337147506051,  0.00000000000000 ]
    - # atom 6
      - [ -0.00000000000138,  0.00000000000000 ]
      - [ -0.00000000002595,  0.00000000000000 ]
      - [ -0.49542465592623,  0.00000000000000 ]
    - # atom 7
      - [  0.00000000000010,  0.00000000000000 ]
      - [ -0.00000000000711,  0.00000000000000 ]
      - [  0.18746516122041,  0.00000000000000 ]
    - # atom 8
      - [  0.00000000000034,  0.00000000000000 ]
      - [ -0.00000000000752,  0.00000000000000 ]
      - [  0.25555971303506,  0.00000000000000 ]
    - # atom 9
      - [ -0.00000000000037,  0.00000000000000 ]
      - [ -0.00000000000711,  0.00000000000000 ]
      - [ -0.06810565136954,  0.00000000000000 ]
    - # atom 10
      - [ -0.00000000000060,  0.00000000000000 ]
      - [ -0.00000000000752,  0.00000000000000 ]
      - [ -0.25555971292946,  0.00000000000000 ]
    - # atom 11
      - [  0.00000000000010,  0.00000000000000 ]
      - [ -0.00000000000793,  0.00000000000000 ]
      - [  0.06810565147515,  0.00000000000000 ]
    - # atom 12
      - [ -0.00000000000037,  0.00000000000000 ]
      - [ -0.00000000000793,  0.00000000000000 ]
      - [ -0.18746516111480,  0.00000000000000 ]
  - # 4
    frequency:    -0.0000005815
    eigenvector:
    - # atom 1
      - [ -0.00000000001949,  0.00000000000000 ]
      - [  0.34173633498918,  0.00000000000000 ]
      - [  0.19229960579943,  0.00000000000000 ]
    - # atom 2
      - [ -0.00000000003213,  0.00000000000000 ]
      - [  0.34173633498926,  0.00000000000000 ]
      - [  0.19229960589563,  0.00000000000000 ]
    - # atom 3
      - [ -0.00000000001324,  0.00000000000000 ]
      - [  0.34173633497819,  0.00000000000000 ]
      - [  0.19229960573291,  0.00000000000000 ]
    - # atom 4
      - [ -0.00000000001963,  0.00000000000000 ]
      - [  0.34173633496727,  0.00000000000000 ]
      - [  0.19229960576262,  0.00000000000000 ]
    - # atom 5
      - [ -0.00000000003228,  0.00000000000000 ]
      - [  0.34173633496736,  0.00000000000000 ]
      - [  0.19229960585883,  0.00000000000000 ]
    - # atom 6
      - [ -0.00000000003853,  0.00000000000000 ]
      - [  0.34173633497835,  0.00000000000000 ]
      - [  0.19229960592534,  0.00000000000000 ]
    - # atom 7
      - [ -0.00000000000420,  0.00000000000000 ]
      - [  0.09899752520417,  0.00000000000000 ]
      - [  0.05570723133586,  0.00000000000000 ]
    - # atom 8
      - [ -0.00000000000097,  0.00000000000000 ]
      - [  0.09899752519850,  0.00000000000000 ]
      - [  0.05570723130154,  0.00000000000000 ]
    - # atom 9
      - [ -0.00000000001072,  0.00000000000000 ]
      - [  0.09899752520421,  0.00000000000000 ]
      - [  0.05570723138549,  0.00000000000000 ]
    - # atom 10
      - [ -0.00000000001402,  0.00000000000000 ]
      - [  0.09899752519858,  0.00000000000000 ]
      - [  0.05570723140081,  0.00000000000000 ]
    - # atom 11
      - [ -0.00000000000427,  0.00000000000000 ]
      - [  0.09899752519287,  0.00000000000000 ]
      - [  0.05570723131686,  0.00000000000000 ]
    - # atom 12
      - [ -0.00000000001080,  0.00000000000000 ]
      - [  0.09899752519291,  0.00000000000000 ]
      - [  0.05570723136650,  0.00000000000000 ]
  - # 5
    frequency:     0.0000008578
    eigenvector:
    - # atom 1
      - [ -0.39212607799428,  0.00000000000000 ]
      - [ -0.00000000002629,  0.00000000000000 ]
      - [  0.00000000000649,  0.00000000000000 ]
    - # atom 2
      - [ -0.39212607800245,  0.00000000000000 ]
      - [ -0.00000000002623,  0.00000000000000 ]
      - [  0.00000000000724,  0.00000000000000 ]
    - # atom 3
      - [ -0.39212607799025,  0.00000000000000 ]
      - [ -0.00000000003338,  0.00000000000000 ]
      - [  0.00000000000569,  0.00000000000000 ]
    - # atom 4
      - [ -0.39212607799438,  0.00000000000000 ]
      - [ -0.00000000004042,  0.00000000000000 ]
      - [  0.00000000000565,  0.00000000000000 ]
    - # atom 5
      - [ -0.39212607800254,  0.00000000000000 ]
      - [ -0.00000000004037,  0.00000000000000 ]
      - [  0.00000000000640,  0.00000000000000 ]
    - # atom 6
      - [ -0.39212607800657,  0.00000000000000 ]
      - [ -0.00000000003327,  0.00000000000000 ]
      - [  0.00000000000720,  0.00000000000000 ]
    - # atom 7
      - [ -0.11359491898745,  0.00000000000000 ]
      - [ -0.00000000000602,  0.00000000000000 ]
      - [  0.00000000000189,  0.00000000000000 ]
    - # atom 8
      - [ -0.11359491898537,  0.00000000000000 ]
      - [ -0.00000000000968,  0.00000000000000 ]
      - [  0.00000000000148,  0.00000000000000 ]
    - # atom 9
      - [ -0.11359491899166,  0.00000000000000 ]
      - [ -0.00000000000599,  0.00000000000000 ]
      - [  0.00000000000228,  0.00000000000000 ]
    - # atom 10
      - [ -0.11359491899379,  0.00000000000000 ]
      - [ -0.00000000000963,  0.00000000000000 ]
      - [  0.00000000000226,  0.00000000000000 ]
    - # atom 11
      - [ -0.11359491898750,  0.00000000000000 ]
      - [ -0.00000000001331,  0.00000000000000 ]
      - [  0.00000000000145,  0.00000000000000 ]
    - # atom 12
      - [ -0.11359491899171,  0.00000000000000 ]
      - [ -0.00000000001329,  0.00000000000000 ]
      - [  0.00000000000184,  0.00000000000000 ]
  - # 6
    frequency:     0.0000015128
    eigenvector:
    - # atom 1
      - [ -0.00000000001914,  0.00000000000000 ]
      - [  0.19229960583394,  0.00000000000000 ]
      - [ -0.34173633480556,  0.00000000000000 ]
    - # atom 2
      - [ -0.00000000002472,  0.00000000000000 ]
      - [  0.19229960583398,  0.00000000000000 ]
      - [ -0.34173633501726,  0.00000000000000 ]
    - # atom 3
      - [ -0.00000000001638,  0.00000000000000 ]
      - [  0.19229960582909,  0.00000000000000 ]
      - [ -0.34173633476655,  0.00000000000000 ]
    - # atom 4
      - [ -0.00000000001920,  0.00000000000000 ]
      - [  0.19229960582428,  0.00000000000000 ]
      - [ -0.34173633493928,  0.00000000000000 ]
    - # atom 5
      - [ -0.00000000002478,  0.00000000000000 ]
      - [  0.19229960582432,  0.00000000000000 ]
      - [ -0.34173633515097,  0.00000000000000 ]
    - # atom 6
      - [ -0.00000000002754,  0.00000000000000 ]
      - [  0.19229960582917,  0.00000000000000 ]
      - [ -0.34173633519000,  0.00000000000000 ]
    - # atom 7
      - [ -0.00000000000491,  0.00000000000000 ]
      - [  0.05570723135366,  0.00000000000000 ]
      - [ -0.09899752510944,  0.00000000000000 ]
    - # atom 8
      - [ -0.00000000000348,  0.00000000000000 ]
      - [  0.05570723135116,  0.00000000000000 ]
      - [ -0.09899752508932,  0.00000000000000 ]
    - # atom 9
      - [ -0.00000000000778,  0.00000000000000 ]
      - [  0.05570723135368,  0.00000000000000 ]
      - [ -0.09899752521866,  0.00000000000000 ]
    - # atom 10
      - [ -0.00000000000924,  0.00000000000000 ]
      - [  0.05570723135120,  0.00000000000000 ]
      - [ -0.09899752530776,  0.00000000000000 ]
    - # atom 11
      - [ -0.00000000000494,  0.00000000000000 ]
      - [  0.05570723134868,  0.00000000000000 ]
      - [ -0.09899752517842,  0.00000000000000 ]
    - # atom 12
      - [ -0.00000000000782,  0.00000000000000 ]
      - [  0.05570723134870,  0.00000000000000 ]
      - [ -0.09899752528764,  0.00000000000000 ]
  - # 7
    frequency:    11.8415912879
    eigenvector:
    - # atom 1
      - [ -0.00000000000000,  0.00000000000000 ]
      - [  0.00000000000000,  0.00000000000000 ]
      - [ -0.06300942698587,  0.00000000000000 ]
    - # atom 2
      - [  0.00000000000000,  0.00000000000000 ]
      - [  0.00000000000000,  0.00000000000000 ]
      - [  0.44704643954173,  0.00000000000000 ]
    - # atom 3
      - [ -0.00000000000000,  0.00000000000000 ]
      - [  0.00000000000000,  0.00000000000000 ]
      - [ -0.38409907080744,  0.00000000000000 ]
    - # atom 4
      - [ -0.00000000000000,  0.00000000000000 ]
      - [ -0.00000000000000,  0.00000000000000 ]
      - [  0.44704643954172,  0.00000000000000 ]
    - # atom 5
      - [  0.00000000000000,  0.00000000000000 ]
      - [ -0.00000000000000,  0.00000000000000 ]
      - [ -0.06300942698588,  0.00000000000000 ]
    - # atom 6
      - [  0.00000000000000,  0.00000000000000 ]
      - [ -0.00000000000000,  0.00000000000000 ]
      - [ -0.38409907080744,  0.00000000000000 ]
    - # atom 7
      - [ -0.00000000000000,  0.00000000000000 ]
      - [ -0.00000000000000,  0.00000000000000 ]
      - [ -0.04094997367801,  0.00000000000000 ]
    - # atom 8
      - [  0.00000000000000,  0.00000000000000 ]
      - [  0.00000000000000,  0.00000000000000 ]
      - [ -0.24971685730678,  0.00000000000000 ]
    - # atom 9
      - [  0.00000000000000,  0.00000000000000 ]
      - [  0.00000000000000,  0.00000000000000 ]
      - [  0.29088105411221,  0.00000000000000 ]
    - # atom 10
      - [ -0.00000000000000,  0.00000000000000 ]
      - [ -0.00000000000000,  0.00000000000000 ]
      - [ -0.24971685730679,  0.00000000000000 ]
    - # atom 11
      - [ -0.00000000000000,  0.00000000000000 ]
      - [ -0.00000000000000,  0.00000000000000 ]
      - [  0.29088105411221,  0.00000000000000 ]
    - # atom 12
      - [  0.00000000000000,  0.00000000000000 ]
      - [  0.00000000000000,  0.00000000000000 ]
      - [ -0.04094997367801,  0.00000000000000 ]
  - # 8
    frequency:    11.8423467224
    eigenvector:
    - # atom 1
      - [ -0.00000000000000,  0.00000000000000 ]
      - [  0.00000000000000,  0.00000000000000 ]
      - [ -0.47985264101119,  0.00000000000000 ]
    - # atom 2
      - [  0.00000000000000,  0.00000000000000 ]
      - [  0.00000000000000,  0.00000000000000 ]
      - [  0.18535182828705,  0.00000000000000 ]
    - # atom 3
      - [ -0.00000000000000,  0.00000000000000 ]
      - [  0.00000000000000,  0.00000000000000 ]
      - [  0.29452824086573,  0.00000000000000 ]
    - # atom 4
      - [ -0.00000000000000,  0.00000000000000 ]
      - [  0.00000000000000,  0.00000000000000 ]
      - [  0.18535182828705,  0.00000000000000 ]
    - # atom 5
      - [  0.00000000000000,  0.00000000000000 ]
      - [  0.00000000000000,  0.00000000000000 ]
      - [ -0.47985264101120,  0.00000000000000 ]
    - # atom 6
      - [  0.00000000000000,  0.00000000000000 ]
      - [  0.00000000000000,  0.00000000000000 ]
      - [  0.29452824086573,  0.00000000000000 ]
    - # atom 7
      - [ -0.00000000000000,  0.00000000000000 ]
      - [ -0.00000000000000,  0.00000000000000 ]
      - [ -0.31214638867008,  0.00000000000000 ]
    - # atom 8
      - [ -0.00000000000000,  0.00000000000000 ]
      - [  0.00000000000000,  0.00000000000000 ]
      - [  0.19149242913714,  0.00000000000000 ]
    - # atom 9
      - [  0.00000000000000,  0.00000000000000 ]
      - [  0.00000000000000,  0.00000000000000 ]
      - [  0.12055927845318,  0.00000000000000 ]
    - # atom 10
      - [  0.00000000000000,  0.00000000000000 ]
      - [  0.00000000000000,  0.00000000000000 ]
      - [  0.19149242913714,  0.00000000000000 ]
    - # atom 11
      - [ -0.00000000000000,  0.00000000000000 ]
      - [  0.00000000000000,  0.00000000000000 ]
      - [  0.12055927845317,  0.00000000000000 ]
    - # atom 12
      - [  0.00000000000000,  0.00000000000000 ]
      - [  0.00000000000000,  0.00000000000000 ]
      - [ -0.31214638867009,  0.00000000000000 ]
  - # 9
    frequency:    17.9972291556
    eigenvector:
    - # atom 1
      - [ -0.30341030481943,  0.00000000000000 ]
      - [ -0.04227263412177,  0.00000000000000 ]
      - [ -0.00000000000000,  0.00000000000000 ]
    - # atom 2
      - [ -0.32207619006467,  0.00000000000000 ]
      - [  0.02793501753739,  0.00000000000000 ]
      - [  0.00000000000000,  0.00000000000000 ]
    - # atom 3
      - [  0.00304557184379,  0.00000000000000 ]
      - [ -0.50634726945852,  0.00000000000000 ]
      - [ -0.00000000000001,  0.00000000000000 ]
    - # atom 4
      - [  0.32207619006466,  0.00000000000000 ]
      - [ -0.02793501753739,  0.00000000000000 ]
      - [  0.00000000000000,  0.00000000000000 ]
    - # atom 5
      - [  0.30341030481943,  0.00000000000000 ]
      - [  0.04227263412177,  0.00000000000000 ]
      - [ -0.00000000000000,  0.00000000000000 ]
    - # atom 6
      - [ -0.00304557184379,  0.00000000000000 ]
      - [  0.50634726945852,  0.00000000000000 ]
      - [  0.00000000000000,  0.00000000000000 ]
    - # atom 7
      - [ -0.01791026762027,  0.00000000000000 ]
      - [  0.10647519166296,  0.00000000000000 ]
      - [ -0.00000000000000,  0.00000000000000 ]
    - # atom 8
      - [ -0.00370509279781,  0.00000000000000 ]
      - [ -0.14587944369033,  0.00000000000000 ]
      - [ -0.00000000000000,  0.00000000000000 ]
    - # atom 9
      - [ -0.02709347748691,  0.00000000000000 ]
      - [ -0.10751093281234,  0.00000000000000 ]
      - [  0.00000000000000,  0.00000000000000 ]
    - # atom 10
      - [  0.00370509279780,  0.00000000000000 ]
      - [  0.14587944369033,  0.00000000000000 ]
      - [  0.00000000000000,  0.00000000000000 ]
    - # atom 11
      - [  0.02709347748691,  0.00000000000000 ]
      - [  0.10751093281234,  0.00000000000000 ]
      - [  0.00000000000000,  0.00000000000000 ]
    - # atom 12
      - [  0.01791026762027,  0.00000000000000 ]
      - [ -0.10647519166295,  0.00000000000000 ]
      - [  0.00000000000000,  0.00000000000000 ]
  - # 10
    frequency:    17.9982916667
    eigenvector:
    - # atom 1
      - [  0.33327786223935,  0.00000000000000 ]
      - [ -0.31388741904362,  0.00000000000000 ]
      - [ -0.00000000000000,  0.00000000000000 ]
    - # atom 2
      - [ -0.31853082185518,  0.00000000000000 ]
      - [ -0.31146479831689,  0.00000000000000 ]
      - [  0.00000000000000,  0.00000000000000 ]
    - # atom 3
      - [  0.21570099778347,  0.00000000000000 ]
      - [  0.01321747107828,  0.00000000000000 ]
      - [ -0.00000000000000,  0.00000000000000 ]
    - # atom 4
      - [  0.31853082185518,  0.00000000000000 ]
      - [  0.31146479831689,  0.00000000000000 ]
      - [  0.00000000000000,  0.00000000000000 ]
    - # atom 5
      - [ -0.33327786223935,  0.00000000000000 ]
      - [  0.31388741904362,  0.00000000000000 ]
      - [  0.00000000000000,  0.00000000000000 ]
    - # atom 6
      - [ -0.21570099778347,  0.00000000000000 ]
      - [ -0.01321747107828,  0.00000000000000 ]
      - [  0.00000000000000,  0.00000000000000 ]
    - # atom 7
      - [  0.13350295686889,  0.00000000000000 ]
      - [ -0.02655167796859,  0.00000000000000 ]
      - [ -0.00000000000000,  0.00000000000000 ]
    - # atom 8
      - [ -0.09392694561675,  0.00000000000000 ]
      - [  0.00480040641276,  0.00000000000000 ]
      - [ -0.00000000000000,  0.00000000000000 ]
    - # atom 9
      - [ -0.13233960274914,  0.00000000000000 ]
      - [ -0.01842854015918,  0.00000000000000 ]
      - [  0.00000000000000,  0.00000000000000 ]
    - # atom 10
      - [  0.09392694561675,  0.00000000000000 ]
      - [ -0.00480040641276,  0.00000000000000 ]
      - [  0.00000000000000,  0.00000000000000 ]
    - # atom 11
      - [  0.13233960274914,  0.00000000000000 ]
      - [  0.01842854015918,  0.00000000000000 ]
      - [  0.00000000000000,  0.00000000000000 ]
    - # atom 12
      - [ -0.13350295686889,  0.00000000000000 ]
      - [  0.02655167796859,  0.00000000000000 ]
      - [  0.00000000000000,  0.00000000000000 ]
  - # 11
    frequency:    19.8328258870
    eigenvector:
    - # atom 1
      - [  0.00000000000000,  0.00000000000000 ]
      - [ -0.00000000000000,  0.00000000000000 ]
      - [  0.11366901971238,  0.00000000000000 ]
    - # atom 2
      - [ -0.00000000000000,  0.00000000000000 ]
      - [ -0.00000000000000,  0.00000000000000 ]
      - [  0.11374443829594,  0.00000000000000 ]
    - # atom 3
      - [  0.00000000000000,  0.00000000000000 ]
      - [ -0.00000000000000,  0.00000000000000 ]
      - [  0.11337126239713,  0.00000000000000 ]
    - # atom 4
      - [  0.00000000000000,  0.00000000000000 ]
      - [  0.00000000000000,  0.00000000000000 ]
      - [  0.11374443829595,  0.00000000000000 ]
    - # atom 5
      - [ -0.00000000000000,  0.00000000000000 ]
      - [ -0.00000000000000,  0.00000000000000 ]
      - [  0.11366901971238,  0.00000000000000 ]
    - # atom 6
      - [ -0.00000000000000,  0.00000000000000 ]
      - [  0.00000000000000,  0.00000000000000 ]
      - [  0.11337126239714,  0.00000000000000 ]
    - # atom 7
      - [  0.00000000000000,  0.00000000000000 ]
      - [ -0.00000000000000,  0.00000000000000 ]
      - [ -0.39218061197138,  0.00000000000000 ]
    - # atom 8
      - [ -0.00000000000000,  0.00000000000000 ]
      - [ -0.00000000000000,  0.00000000000000 ]
      - [ -0.39198704653284,  0.00000000000000 ]
    - # atom 9
      - [ -0.00000000000000,  0.00000000000000 ]
      - [ -0.00000000000000,  0.00000000000000 ]
      - [ -0.39221044927573,  0.00000000000000 ]
    - # atom 10
      - [  0.00000000000000,  0.00000000000000 ]
      - [  0.00000000000000,  0.00000000000000 ]
      - [ -0.39198704653284,  0.00000000000000 ]
    - # atom 11
      - [  0.00000000000000,  0.00000000000000 ]
      - [ -0.00000000000000,  0.00000000000000 ]
      - [ -0.39221044927573,  0.00000000000000 ]
    - # atom 12
      - [ -0.00000000000000,  0.00000000000000 ]
      - [ -0.00000000000000,  0.00000000000000 ]
      - [ -0.39218061197138,  0.00000000000000 ]
  - # 12
    frequency:    21.0930221429
    eigenvector:
    - # atom 1
      - [  0.00000000000000,  0.00000000000000 ]
      - [  0.00000000000000,  0.00000000000000 ]
      - [  0.36313518799253,  0.00000000000000 ]
    - # atom 2
      - [  0.00000000000000,  0.00000000000000 ]
      - [  0.00000000000000,  0.00000000000000 ]
      - [ -0.36308382788095,  0.00000000000000 ]
    - # atom 3
      - [ -0.00000000000000,  0.00000000000000 ]
      - [  0.00000000000000,  0.00000000000000 ]
      - [ -0.36315635542914,  0.00000000000000 ]
    - # atom 4
      - [ -0.00000000000000,  0.00000000000000 ]
      - [ -0.00000000000000,  0.00000000000000 ]
      - [  0.36308382788094,  0.00000000000000 ]
    - # atom 5
      - [ -0.00000000000000,  0.00000000000000 ]
      - [  0.00000000000000,  0.00000000000000 ]
      - [ -0.36313518799253,  0.00000000000000 ]
    - # atom 6
      - [  0.00000000000000,  0.00000000000000 ]
      - [ -0.00000000000000,  0.00000000000000 ]
      - [  0.36315635542914,  0.00000000000000 ]
    - # atom 7
      - [ -0.00000000000000,  0.00000000000000 ]
      - [  0.00000000000000,  0.00000000000000 ]
      - [  0.18657969775872,  0.00000000000000 ]
    - # atom 8
      - [  0.00000000000000,  0.00000000000000 ]
      - [  0.00000000000000,  0.00000000000000 ]
      - [ -0.18646112447024,  0.00000000000000 ]
    - # atom 9
      - [  0.00000000000000,  0.00000000000000 ]
      - [  0.00000000000000,  0.00000000000000 ]
      - [ -0.18665662626848,  0.00000000000000 ]
    - # atom 10
      - [ -0.00000000000000,  0.00000000000000 ]
      - [ -0.00000000000000,  0.00000000000000 ]
      - [  0.18646112447024,  0.00000000000000 ]
    - # atom 11
      - [ -0.00000000000000,  0.00000000000000 ]
      - [  0.00000000000000,  0.00000000000000 ]
      - [  0.18665662626848,  0.00000000000000 ]
    - # atom 12
      - [  0.00000000000000,  0.00000000000000 ]
      - [  0.00000000000000,  0.00000000000000 ]
      - [ -0.18657969775872,  0.00000000000000 ]
  - # 13
    frequency:    25.0307608599
    eigenvector:
    - # atom 1
      - [  0.00000000000000,  0.00000000000000 ]
      - [  0.00000000000000,  0.00000000000000 ]
      - [  0.21479827640024,  0.00000000000000 ]
    - # atom 2
      - [ -0.00000000000000,  0.00000000000000 ]
      - [  0.00000000000000,  0.00000000000000 ]
      - [  0.24141681426515,  0.00000000000000 ]
    - # atom 3
      - [ -0.00000000000000,  0.00000000000000 ]
      - [ -0.00000000000000,  0.00000000000000 ]
      - [ -0.02637934288223,  0.00000000000000 ]
    - # atom 4
      - [ -0.00000000000000,  0.00000000000000 ]
      - [ -0.00000000000000,  0.00000000000000 ]
      - [ -0.24141681426515,  0.00000000000000 ]
    - # atom 5
      - [ -0.00000000000000,  0.00000000000000 ]
      - [  0.00000000000000,  0.00000000000000 ]
      - [ -0.21479827640024,  0.00000000000000 ]
    - # atom 6
      - [ -0.00000000000000,  0.00000000000000 ]
      - [ -0.00000000000000,  0.00000000000000 ]
      - [  0.02637934288223,  0.00000000000000 ]
    - # atom 7
      - [  0.00000000000000,  0.00000000000000 ]
      - [  0.00000000000000,  0.00000000000000 ]
      - [ -0.41642712126268,  0.00000000000000 ]
    - # atom 8
      - [ -0.00000000000000,  0.00000000000000 ]
      - [ -0.00000000000000,  0.00000000000000 ]
      - [  0.05121541537781,  0.00000000000000 ]
    - # atom 9
      - [ -0.00000000000000,  0.00000000000000 ]
      - [  0.00000000000000,  0.00000000000000 ]
      - [ -0.46781319607212,  0.00000000000000 ]
    - # atom 10
      - [  0.00000000000000,  0.00000000000000 ]
      - [ -0.00000000000000,  0.00000000000000 ]
      - [ -0.05121541537782,  0.00000000000000 ]
    - # atom 11
      - [  0.00000000000000,  0.00000000000000 ]
      - [ -0.00000000000000,  0.00000000000000 ]
      - [  0.46781319607212,  0.00000000000000 ]
    - # atom 12
      - [ -0.00000000000000,  0.00000000000000 ]
      - [ -0.00000000000000,  0.00000000000000 ]
      - [  0.41642712126267,  0.00000000000000 ]
  - # 14
    frequency:    25.0357680614
    eigenvector:
    - # atom 1
      - [  0.00000000000000,  0.00000000000000 ]
      - [ -0.00000000000000,  0.00000000000000 ]
      - [  0.15477387233355,  0.00000000000000 ]
    - # atom 2
      - [  0.00000000000000,  0.00000000000000 ]
      - [  0.00000000000000,  0.00000000000000 ]
      - [ -0.10896667473045,  0.00000000000000 ]
    - # atom 3
      - [ -0.00000000000000,  0.00000000000000 ]
      - [  0.00000000000000,  0.00000000000000 ]
      - [  0.26318110859442,  0.00000000000000 ]
    - # atom 4
      - [ -0.00000000000000,  0.00000000000000 ]
      - [ -0.00000000000000,  0.00000000000000 ]
      - [  0.10896667473045,  0.00000000000000 ]
    - # atom 5
      - [  0.00000000000000,  0.00000000000000 ]
      - [ -0.00000000000000,  0.00000000000000 ]
      - [ -0.15477387233355,  0.00000000000000 ]
    - # atom 6
      - [  0.00000000000000,  0.00000000000000 ]
      - [ -0.00000000000000,  0.00000000000000 ]
      - [ -0.26318110859442,  0.00000000000000 ]
    - # atom 7
      - [ -0.00000000000000,  0.00000000000000 ]
      - [ -0.00000000000000,  0.00000000000000 ]
      - [ -0.29987998113448,  0.00000000000000 ]
    - # atom 8
      - [ -0.00000000000000,  0.00000000000000 ]
      - [  0.00000000000000,  0.00000000000000 ]
      - [ -0.51032497709055,  0.00000000000000 ]
    - # atom 9
      - [ -0.00000000000000,  0.00000000000000 ]
      - [  0.00000000000000,  0.00000000000000 ]
      - [  0.21106262339029,  0.00000000000000 ]
    - # atom 10
      - [  0.00000000000000,  0.00000000000000 ]
      - [ -0.00000000000000,  0.00000000000000 ]
      - [  0.51032497709055,  0.00000000000000 ]
    - # atom 11
      - [  0.00000000000000,  0.00000000000000 ]
      - [ -0.00000000000000,  0.00000000000000 ]
      - [ -0.21106262339029,  0.00000000000000 ]
    - # atom 12
      - [ -0.00000000000000,  0.00000000000000 ]