14.400
   1.0296070  -0.0010710   0.0000000  -0.0010710   1.0377060   0.0000000   0.0000000   0.0000000   1.0156890
   0.0161500  -0.1271100   0.0000000   0.1188200   0.0982300   0.0000000   0.0000000   0.0000000  -0.0689400
   0.0443700   0.1787000   0.0000000   0.1513300  -0.1357600   0.0000000  -0.0000000  -0.0000000  -0.1195700
  -0.1171500   0.0220700   0.0000000  -0.1443400  -0.8047800   0.0000000   0.0000000   0.0000000  -0.0103800
   0.0548100   0.1183500   0.0000000  -0.0996200   0.1393900   0.0000000  -0.0000000  -0.0000000  -0.0927600
   0.0262900  -0.1667800   0.0000000  -0.1659100  -0.1078900   0.0000000  -0.0000000   0.0000000  -0.1310700
   0.0669800   0.0006300   0.0000000  -0.0163100   0.1089400   0.0000000  -0.0000000  -0.0000000  -0.0980700
   0.8784300  -0.1664700   0.0000000  -0.2136900   1.7217300   0.0000000  -0.0000000   0.0000000   0.1393200
  -0.2515000  -0.0689900   0.0000000  -0.1493200  -0.0227700   0.0000000   0.0000000   0.0000000   0.0652200
   0.0134900   0.0585700   0.0000000   0.0240300   0.0836300   0.0000000   0.0000000  -0.0000000   0.1216300
  -0.0451200  -0.0643600   0.0000000  -0.0720800   0.0187600   0.0000000   0.0000000   0.0000000   0.1273600
  -0.0289600  -0.0889200   0.0000000  -0.0518600   0.0334100   0.0000000   0.0000000   0.0000000   0.1262500
   0.0718200  -0.0023800   0.0000000  -0.0034500  -0.0810100   0.0000000   0.0000000   0.0000000   0.1263600
  -0.0430600   0.0652100   0.0000000   0.0748700   0.0170900   0.0000000  -0.0000000   0.0000000   0.1304100
  -0.6845300   0.2415000   0.0000000   0.5476300  -1.0670400   0.0000000  -0.0000000  -0.0000000  -0.3138600
