mesh: [     1,     1,     1 ]
nqpoint: 1      
reciprocal_lattice:
- [   0.05163150,   0.00000000,   0.00000000 ] # a*
- [   0.00000000,   0.04754714,   0.00000000 ] # b*
- [   0.00000000,   0.00000000,   0.06666667 ] # c*
natom:   14     
lattice:
- [    19.3680200000000013,     0.0000000000000000,     0.0000000000000000 ] # a
- [     0.0000000000000000,    21.0317599999999985,     0.0000000000000000 ] # b
- [     0.0000000000000000,     0.0000000000000000,    15.0000000000000000 ] # c
atoms:
- symbol: C  # 1
  position: [  0.4373342175983059,  0.5083491457236069,  0.5000000000000000 ]
  mass: 12.010700
- symbol: C  # 2
  position: [  0.4362293508160723,  0.4422274310733643,  0.5000000000000000 ]
  mass: 12.010700
- symbol: C  # 3
  position: [  0.5007906281898675,  0.5407213476564661,  0.5000000000000000 ]
  mass: 12.010700
- symbol: C  # 4
  position: [  0.5627975300016218,  0.5062425167766975,  0.5000000000000000 ]
  mass: 12.010700
- symbol: C  # 5
  position: [  0.5616143721567083,  0.4399300393861001,  0.5000000000000000 ]
  mass: 12.010700
- symbol: C  # 6
  position: [  0.4983229322611013,  0.4080042242033827,  0.5000000000000000 ]
  mass: 12.010700
- symbol: C  # 7
  position: [  0.5029250485913890,  0.6109948584685475,  0.5000000000000000 ]
  mass: 12.010700
- symbol: H  # 8
  position: [  0.5561877824811916,  0.6317565371027659,  0.5000000000000000 ]
  mass: 1.007940
- symbol: H  # 9
  position: [  0.3899014204058725,  0.5363080792439188,  0.5000000000000000 ]
  mass: 1.007940
- symbol: H  # 10
  position: [  0.3871003582169715,  0.4168905175580620,  0.5000000000000000 ]
  mass: 1.007940
- symbol: H  # 11
  position: [  0.6118899023165167,  0.5318502763104287,  0.5000000000000000 ]
  mass: 1.007940
- symbol: H  # 12
  position: [  0.4972420174173321,  0.3561471692507071,  0.5000000000000000 ]
  mass: 1.007940
- symbol: H  # 13
  position: [  0.6097552922453002,  0.4130538911707291,  0.5000000000000000 ]
  mass: 1.007940
- symbol: O  # 14
  position: [  0.4521031743628517,  0.6456642833858034,  0.5000000000000000 ]
  mass: 15.999400
supercell_matrix:
- [    1,    0,    0 ]
- [    0,    1,    0 ]
- [    0,    0,    1 ]

phonon:
- q-position: [    0.0000000,    0.0000000,    0.0000000 ]
  weight: 1    
  band:
  - # 1
    frequency:    -0.3812526218
    eigenvector:
    - # atom 1
      - [ -0.00000000000283,  0.00000000000000 ]
      - [  0.00000000000305,  0.00000000000000 ]
      - [ -0.38698186067833,  0.00000000000000 ]
    - # atom 2
      - [ -0.00000000000395,  0.00000000000000 ]
      - [  0.00000000000306,  0.00000000000000 ]
      - [ -0.46923151922094,  0.00000000000000 ]
    - # atom 3
      - [ -0.00000000000229,  0.00000000000000 ]
      - [  0.00000000000206,  0.00000000000000 ]
      - [  0.07782055085096,  0.00000000000000 ]
    - # atom 4
      - [ -0.00000000000287,  0.00000000000000 ]
      - [  0.00000000000110,  0.00000000000000 ]
      - [  0.45567036389036,  0.00000000000000 ]
    - # atom 5
      - [ -0.00000000000399,  0.00000000000000 ]
      - [  0.00000000000111,  0.00000000000000 ]
      - [  0.37223145468026,  0.00000000000000 ]
    - # atom 6
      - [ -0.00000000000453,  0.00000000000000 ]
      - [  0.00000000000210,  0.00000000000000 ]
      - [ -0.08965546650941,  0.00000000000000 ]
    - # atom 7
      - [ -0.00000000000110,  0.00000000000000 ]
      - [  0.00000000000203,  0.00000000000000 ]
      - [  0.17586548508561,  0.00000000000000 ]
    - # atom 8
      - [ -0.00000000000022,  0.00000000000000 ]
      - [  0.00000000000035,  0.00000000000000 ]
      - [  0.16270308899798,  0.00000000000000 ]
    - # atom 9
      - [ -0.00000000000068,  0.00000000000000 ]
      - [  0.00000000000110,  0.00000000000000 ]
      - [ -0.19570663287926,  0.00000000000000 ]
    - # atom 10
      - [ -0.00000000000127,  0.00000000000000 ]
      - [  0.00000000000111,  0.00000000000000 ]
      - [ -0.24023307641645,  0.00000000000000 ]
    - # atom 11
      - [ -0.00000000000071,  0.00000000000000 ]
      - [  0.00000000000010,  0.00000000000000 ]
      - [  0.23638360190640,  0.00000000000000 ]
    - # atom 12
      - [ -0.00000000000157,  0.00000000000000 ]
      - [  0.00000000000061,  0.00000000000000 ]
      - [ -0.04494639170405,  0.00000000000000 ]
    - # atom 13
      - [ -0.00000000000129,  0.00000000000000 ]
      - [  0.00000000000011,  0.00000000000000 ]
      - [  0.19310864293483,  0.00000000000000 ]
    - # atom 14
      - [ -0.00000000000059,  0.00000000000000 ]
      - [  0.00000000000326,  0.00000000000000 ]
      - [ -0.14552879151391,  0.00000000000000 ]
  - # 2
    frequency:    -0.1051818790
    eigenvector:
    - # atom 1
      - [  0.00000000000210,  0.00000000000000 ]
      - [  0.00000000003061,  0.00000000000000 ]
      - [ -0.00125146196270,  0.00000000000000 ]
    - # atom 2
      - [ -0.00000000000788,  0.00000000000000 ]
      - [  0.00000000003077,  0.00000000000000 ]
      - [ -0.26379277372625,  0.00000000000000 ]
    - # atom 3
      - [  0.00000000000699,  0.00000000000000 ]
      - [  0.00000000002179,  0.00000000000000 ]
      - [  0.09338129227955,  0.00000000000000 ]
    - # atom 4
      - [  0.00000000000179,  0.00000000000000 ]
      - [  0.00000000001317,  0.00000000000000 ]
      - [ -0.07746699651281,  0.00000000000000 ]
    - # atom 5
      - [ -0.00000000000822,  0.00000000000000 ]
      - [  0.00000000001334,  0.00000000000000 ]
      - [ -0.34011293111391,  0.00000000000000 ]
    - # atom 6
      - [ -0.00000000001304,  0.00000000000000 ]
      - [  0.00000000002214,  0.00000000000000 ]
      - [ -0.43313653770857,  0.00000000000000 ]
    - # atom 7
      - [  0.00000000001759,  0.00000000000000 ]
      - [  0.00000000002149,  0.00000000000000 ]
      - [  0.37254955868201,  0.00000000000000 ]
    - # atom 8
      - [  0.00000000000600,  0.00000000000000 ]
      - [  0.00000000000408,  0.00000000000000 ]
      - [  0.12187656633073,  0.00000000000000 ]
    - # atom 9
      - [  0.00000000000183,  0.00000000000000 ]
      - [  0.00000000001078,  0.00000000000000 ]
      - [  0.03918932371144,  0.00000000000000 ]
    - # atom 10
      - [ -0.00000000000339,  0.00000000000000 ]
      - [  0.00000000001089,  0.00000000000000 ]
      - [ -0.09804951722865,  0.00000000000000 ]
    - # atom 11
      - [  0.00000000000164,  0.00000000000000 ]
      - [  0.00000000000184,  0.00000000000000 ]
      - [ -0.00063767440754,  0.00000000000000 ]
    - # atom 12
      - [ -0.00000000000604,  0.00000000000000 ]
      - [  0.00000000000646,  0.00000000000000 ]
      - [ -0.18503455301472,  0.00000000000000 ]
    - # atom 13
      - [ -0.00000000000356,  0.00000000000000 ]
      - [  0.00000000000192,  0.00000000000000 ]
      - [ -0.13693861099453,  0.00000000000000 ]
    - # atom 14
      - [  0.00000000002634,  0.00000000000000 ]
      - [  0.00000000003296,  0.00000000000000 ]
      - [  0.62818753667326,  0.00000000000000 ]
  - # 3
    frequency:    -0.0426251515
    eigenvector:
    - # atom 1
      - [  0.02691834786358,  0.00000000000000 ]
      - [ -0.18288637622776,  0.00000000000000 ]
      - [  0.00000000024484,  0.00000000000000 ]
    - # atom 2
      - [  0.26154549875686,  0.00000000000000 ]
      - [ -0.18649326196818,  0.00000000000000 ]
      - [  0.00000000023328,  0.00000000000000 ]
    - # atom 3
      - [ -0.08797858719039,  0.00000000000000 ]
      - [  0.02454759745651,  0.00000000000000 ]
      - [  0.00000000025107,  0.00000000000000 ]
    - # atom 4
      - [  0.03433659285403,  0.00000000000000 ]
      - [  0.22716256635066,  0.00000000000000 ]
      - [  0.00000000024561,  0.00000000000000 ]
    - # atom 5
      - [  0.26965848310416,  0.00000000000000 ]
      - [  0.22330702466930,  0.00000000000000 ]
      - [  0.00000000023405,  0.00000000000000 ]
    - # atom 6
      - [  0.38298951976824,  0.00000000000000 ]
      - [  0.01644422053072,  0.00000000000000 ]
      - [  0.00000000022789,  0.00000000000000 ]
    - # atom 7
      - [ -0.33713245049379,  0.00000000000000 ]
      - [  0.03155185595930,  0.00000000000000 ]
      - [  0.00000000026341,  0.00000000000000 ]
    - # atom 8
      - [ -0.11898322856242,  0.00000000000000 ]
      - [  0.05953170570240,  0.00000000000000 ]
      - [  0.00000000007743,  0.00000000000000 ]
    - # atom 9
      - [ -0.02095795005137,  0.00000000000000 ]
      - [ -0.09793043398055,  0.00000000000000 ]
      - [  0.00000000007221,  0.00000000000000 ]
    - # atom 10
      - [  0.10181195078380,  0.00000000000000 ]
      - [ -0.10053894469668,  0.00000000000000 ]
      - [  0.00000000006616,  0.00000000000000 ]
    - # atom 11
      - [ -0.01637839826624,  0.00000000000000 ]
      - [  0.11227539814970,  0.00000000000000 ]
      - [  0.00000000007258,  0.00000000000000 ]
    - # atom 12
      - [  0.16424244644265,  0.00000000000000 ]
      - [  0.00374162956646,  0.00000000000000 ]
      - [  0.00000000006339,  0.00000000000000 ]
    - # atom 13
      - [  0.10576008781006,  0.00000000000000 ]
      - [  0.11030369395695,  0.00000000000000 ]
      - [  0.00000000006658,  0.00000000000000 ]
    - # atom 14
      - [ -0.53091575043361,  0.00000000000000 ]
      - [ -0.15504515307681,  0.00000000000000 ]
      - [  0.00000000031082,  0.00000000000000 ]
  - # 4
    frequency:    -0.0000012524
    eigenvector:
    - # atom 1
      - [  0.33641981633298,  0.00000000000000 ]
      - [ -0.00000000002339,  0.00000000000000 ]
      - [ -0.00000000002283,  0.00000000000000 ]
    - # atom 2
      - [  0.33641981634598,  0.00000000000000 ]
      - [ -0.00000000002359,  0.00000000000000 ]
      - [ -0.00000000002096,  0.00000000000000 ]
    - # atom 3
      - [  0.33641981632661,  0.00000000000000 ]
      - [ -0.00000000001189,  0.00000000000000 ]
      - [ -0.00000000002000,  0.00000000000000 ]
    - # atom 4
      - [  0.33641981633339,  0.00000000000000 ]
      - [ -0.00000000000066,  0.00000000000000 ]
      - [ -0.00000000001532,  0.00000000000000 ]
    - # atom 5
      - [  0.33641981634643,  0.00000000000000 ]
      - [ -0.00000000000087,  0.00000000000000 ]
      - [ -0.00000000001347,  0.00000000000000 ]
    - # atom 6
      - [  0.33641981635271,  0.00000000000000 ]
      - [ -0.00000000001234,  0.00000000000000 ]
      - [ -0.00000000001629,  0.00000000000000 ]
    - # atom 7
      - [  0.33641981631278,  0.00000000000000 ]
      - [ -0.00000000001150,  0.00000000000000 ]
      - [ -0.00000000002192,  0.00000000000000 ]
    - # atom 8
      - [  0.09745738405144,  0.00000000000000 ]
      - [ -0.00000000000053,  0.00000000000000 ]
      - [ -0.00000000000558,  0.00000000000000 ]
    - # atom 9
      - [  0.09745738405688,  0.00000000000000 ]
      - [ -0.00000000000927,  0.00000000000000 ]
      - [ -0.00000000000767,  0.00000000000000 ]
    - # atom 10
      - [  0.09745738406368,  0.00000000000000 ]
      - [ -0.00000000000941,  0.00000000000000 ]
      - [ -0.00000000000670,  0.00000000000000 ]
    - # atom 11
      - [  0.09745738405713,  0.00000000000000 ]
      - [  0.00000000000239,  0.00000000000000 ]
      - [ -0.00000000000381,  0.00000000000000 ]
    - # atom 12
      - [  0.09745738406714,  0.00000000000000 ]
      - [ -0.00000000000363,  0.00000000000000 ]
      - [ -0.00000000000430,  0.00000000000000 ]
    - # atom 13
      - [  0.09745738406390,  0.00000000000000 ]
      - [  0.00000000000228,  0.00000000000000 ]
      - [ -0.00000000000285,  0.00000000000000 ]
    - # atom 14
      - [  0.38828378795538,  0.00000000000000 ]
      - [ -0.00000000002390,  0.00000000000000 ]
      - [ -0.00000000003004,  0.00000000000000 ]
  - # 5
    frequency:    -0.0000004928
    eigenvector:
    - # atom 1
      - [  0.00000000000000,  0.00000000000000 ]
      - [ -0.15076214383437,  0.00000000000000 ]
      - [ -0.30074751679148,  0.00000000000000 ]
    - # atom 2
      - [  0.00000000020560,  0.00000000000000 ]
      - [ -0.15076214383753,  0.00000000000000 ]
      - [ -0.30074751679181,  0.00000000000000 ]
    - # atom 3
      - [ -0.00000000010068,  0.00000000000000 ]
      - [ -0.15076214365260,  0.00000000000000 ]
      - [ -0.30074751678958,  0.00000000000000 ]
    - # atom 4
      - [  0.00000000000650,  0.00000000000000 ]
      - [ -0.15076214347506,  0.00000000000000 ]
      - [ -0.30074751678802,  0.00000000000000 ]
    - # atom 5
      - [  0.00000000021271,  0.00000000000000 ]
      - [ -0.15076214347843,  0.00000000000000 ]
      - [ -0.30074751678836,  0.00000000000000 ]
    - # atom 6
      - [  0.00000000031202,  0.00000000000000 ]
      - [ -0.15076214365970,  0.00000000000000 ]
      - [ -0.30074751679025,  0.00000000000000 ]
    - # atom 7
      - [ -0.00000000031900,  0.00000000000000 ]
      - [ -0.15076214364646,  0.00000000000000 ]
      - [ -0.30074751678919,  0.00000000000000 ]
    - # atom 8
      - [ -0.00000000011109,  0.00000000000000 ]
      - [ -0.04367425284316,  0.00000000000000 ]
      - [ -0.08712348329443,  0.00000000000000 ]
    - # atom 9
      - [ -0.00000000002520,  0.00000000000000 ]
      - [ -0.04367425298114,  0.00000000000000 ]
      - [ -0.08712348329590,  0.00000000000000 ]
    - # atom 10
      - [  0.00000000008238,  0.00000000000000 ]
      - [ -0.04367425298343,  0.00000000000000 ]
      - [ -0.08712348329608,  0.00000000000000 ]
    - # atom 11
      - [ -0.00000000002119,  0.00000000000000 ]
      - [ -0.04367425279694,  0.00000000000000 ]
      - [ -0.08712348329412,  0.00000000000000 ]
    - # atom 12
      - [  0.00000000013709,  0.00000000000000 ]
      - [ -0.04367425289205,  0.00000000000000 ]
      - [ -0.08712348329528,  0.00000000000000 ]
    - # atom 13
      - [  0.00000000008584,  0.00000000000000 ]
      - [ -0.04367425279867,  0.00000000000000 ]
      - [ -0.08712348329430,  0.00000000000000 ]
    - # atom 14
      - [ -0.00000000049244,  0.00000000000000 ]
      - [ -0.17400430484310,  0.00000000000000 ]
      - [ -0.34711208846084,  0.00000000000000 ]
  - # 6
    frequency:     0.0000011296
    eigenvector:
    - # atom 1
      - [  0.00000000000000,  0.00000000000000 ]
      - [ -0.30074751681027,  0.00000000000000 ]
      - [  0.15076214367202,  0.00000000000000 ]
    - # atom 2
      - [  0.00000000002614,  0.00000000000000 ]
      - [ -0.30074751681068,  0.00000000000000 ]
      - [  0.15076214365164,  0.00000000000000 ]
    - # atom 3
      - [ -0.00000000001280,  0.00000000000000 ]
      - [ -0.30074751678716,  0.00000000000000 ]
      - [  0.15076214368161,  0.00000000000000 ]
    - # atom 4
      - [  0.00000000000083,  0.00000000000000 ]
      - [ -0.30074751676459,  0.00000000000000 ]
      - [  0.15076214367060,  0.00000000000000 ]
    - # atom 5
      - [  0.00000000002704,  0.00000000000000 ]
      - [ -0.30074751676502,  0.00000000000000 ]
      - [  0.15076214365021,  0.00000000000000 ]
    - # atom 6
      - [  0.00000000003967,  0.00000000000000 ]
      - [ -0.30074751678807,  0.00000000000000 ]
      - [  0.15076214364073,  0.00000000000000 ]
    - # atom 7
      - [ -0.00000000004056,  0.00000000000000 ]
      - [ -0.30074751678638,  0.00000000000000 ]
      - [  0.15076214370331,  0.00000000000000 ]
    - # atom 8
      - [ -0.00000000001412,  0.00000000000000 ]
      - [ -0.08712348328846,  0.00000000000000 ]
      - [  0.04367425290542,  0.00000000000000 ]
    - # atom 9
      - [ -0.00000000000320,  0.00000000000000 ]
      - [ -0.08712348330600,  0.00000000000000 ]
      - [  0.04367425289729,  0.00000000000000 ]
    - # atom 10
      - [  0.00000000001047,  0.00000000000000 ]
      - [ -0.08712348330630,  0.00000000000000 ]
      - [  0.04367425288663,  0.00000000000000 ]
    - # atom 11
      - [ -0.00000000000269,  0.00000000000000 ]
      - [ -0.08712348328259,  0.00000000000000 ]
      - [  0.04367425289651,  0.00000000000000 ]
    - # atom 12
      - [  0.00000000001743,  0.00000000000000 ]
      - [ -0.08712348329468,  0.00000000000000 ]
      - [  0.04367425288103,  0.00000000000000 ]
    - # atom 13
      - [  0.00000000001091,  0.00000000000000 ]
      - [ -0.08712348328281,  0.00000000000000 ]
      - [  0.04367425288593,  0.00000000000000 ]
    - # atom 14
      - [ -0.00000000006261,  0.00000000000000 ]
      - [ -0.34711208847747,  0.00000000000000 ]
      - [  0.17400430475421,  0.00000000000000 ]
  - # 7
    frequency:     3.3028966828
    eigenvector:
    - # atom 1
      - [  0.00000000000001,  0.00000000000000 ]
      - [  0.00000000000000,  0.00000000000000 ]
      - [ -0.35429015232880,  0.00000000000000 ]
    - # atom 2
      - [  0.00000000000001,  0.00000000000000 ]
      - [  0.00000000000000,  0.00000000000000 ]
      - [ -0.06959988684704,  0.00000000000000 ]
    - # atom 3
      - [  0.00000000000001,  0.00000000000000 ]
      - [ -0.00000000000000,  0.00000000000000 ]
      - [ -0.35538011037885,  0.00000000000000 ]
    - # atom 4
      - [  0.00000000000001,  0.00000000000000 ]
      - [ -0.00000000000001,  0.00000000000000 ]
      - [ -0.15367138052516,  0.00000000000000 ]
    - # atom 5
      - [  0.00000000000001,  0.00000000000000 ]
      - [ -0.00000000000001,  0.00000000000000 ]
      - [  0.23309630710704,  0.00000000000000 ]
    - # atom 6
      - [  0.00000000000000,  0.00000000000000 ]
      - [ -0.00000000000000,  0.00000000000000 ]
      - [  0.28949797231048,  0.00000000000000 ]
    - # atom 7
      - [  0.00000000000002,  0.00000000000000 ]
      - [ -0.00000000000000,  0.00000000000000 ]
      - [ -0.25495160289085,  0.00000000000000 ]
    - # atom 8
      - [  0.00000000000000,  0.00000000000000 ]
      - [ -0.00000000000000,  0.00000000000000 ]
      - [ -0.24511677950922,  0.00000000000000 ]
    - # atom 9
      - [  0.00000000000000,  0.00000000000000 ]
      - [  0.00000000000000,  0.00000000000000 ]
      - [ -0.15094545367091,  0.00000000000000 ]
    - # atom 10
      - [  0.00000000000000,  0.00000000000000 ]
      - [  0.00000000000000,  0.00000000000000 ]
      - [ -0.02226486819575,  0.00000000000000 ]
    - # atom 11
      - [  0.00000000000000,  0.00000000000000 ]
      - [ -0.00000000000000,  0.00000000000000 ]
      - [ -0.05615750879345,  0.00000000000000 ]
    - # atom 12
      - [ -0.00000000000000,  0.00000000000000 ]
      - [ -0.00000000000000,  0.00000000000000 ]
      - [  0.17226648427593,  0.00000000000000 ]
    - # atom 13
      - [  0.00000000000000,  0.00000000000000 ]
      - [ -0.00000000000000,  0.00000000000000 ]
      - [  0.14318008017455,  0.00000000000000 ]
    - # atom 14
      - [  0.00000000000002,  0.00000000000000 ]
      - [ -0.00000000000000,  0.00000000000000 ]
      - [  0.61635112622495,  0.00000000000000 ]
  - # 8
    frequency:     6.4040268961
    eigenvector:
    - # atom 1
      - [ -0.23405915239932,  0.00000000000000 ]
      - [ -0.25752759661983,  0.00000000000000 ]
      - [  0.00000000000000,  0.00000000000000 ]
    - # atom 2
      - [  0.05121736810783,  0.00000000000000 ]
      - [ -0.28566431565063,  0.00000000000000 ]
      - [  0.00000000000001,  0.00000000000000 ]
    - # atom 3
      - [ -0.33573659685452,  0.00000000000000 ]
      - [ -0.04836800593178,  0.00000000000000 ]
      - [  0.00000000000000,  0.00000000000000 ]
    - # atom 4
      - [ -0.24200906427776,  0.00000000000000 ]
      - [  0.10971193496209,  0.00000000000000 ]
      - [  0.00000000000001,  0.00000000000000 ]
    - # atom 5
      - [  0.04922447576836,  0.00000000000000 ]
      - [  0.11880722438986,  0.00000000000000 ]
      - [  0.00000000000000,  0.00000000000000 ]
    - # atom 6
      - [  0.17294093270984,  0.00000000000000 ]
      - [ -0.09367777405236,  0.00000000000000 ]
      - [  0.00000000000001,  0.00000000000000 ]
    - # atom 7
      - [  0.01888983656684,  0.00000000000000 ]
      - [ -0.03988793993069,  0.00000000000000 ]
      - [ -0.00000000000001,  0.00000000000000 ]
    - # atom 8
      - [  0.06257070502555,  0.00000000000000 ]
      - [ -0.14043795824971,  0.00000000000000 ]
      - [ -0.00000000000001,  0.00000000000000 ]
    - # atom 9
      - [ -0.10821944289309,  0.00000000000000 ]
      - [ -0.13682580788002,  0.00000000000000 ]
      - [  0.00000000000000,  0.00000000000000 ]
    - # atom 10
      - [  0.04375857473417,  0.00000000000000 ]
      - [ -0.13472671218490,  0.00000000000000 ]
      - [  0.00000000000000,  0.00000000000000 ]
    - # atom 11
      - [ -0.10003833076018,  0.00000000000000 ]
      - [  0.08493471060172,  0.00000000000000 ]
      - [  0.00000000000000,  0.00000000000000 ]
    - # atom 12
      - [  0.10159966424552,  0.00000000000000 ]
      - [ -0.02809314444270,  0.00000000000000 ]
      - [  0.00000000000000,  0.00000000000000 ]
    - # atom 13
      - [  0.04735767115002,  0.00000000000000 ]
      - [  0.08926925902136,  0.00000000000000 ]
      - [  0.00000000000000,  0.00000000000000 ]
    - # atom 14
      - [  0.43833305646104,  0.00000000000000 ]
      - [  0.49700811576475,  0.00000000000000 ]
      - [  0.00000000000000,  0.00000000000000 ]
  - # 9
    frequency:     6.7530442094
    eigenvector:
    - # atom 1
      - [  0.00000000000000,  0.00000000000000 ]
      - [ -0.00000000000001,  0.00000000000000 ]
      - [ -0.30439632524367,  0.00000000000000 ]
    - # atom 2
      - [  0.00000000000000,  0.00000000000000 ]
      - [ -0.00000000000001,  0.00000000000000 ]
      - [  0.10230021869315,  0.00000000000000 ]
    - # atom 3
      - [ -0.00000000000000,  0.00000000000000 ]
      - [ -0.00000000000001,  0.00000000000000 ]
      - [ -0.23114684395728,  0.00000000000000 ]
    - # atom 4
      - [  0.00000000000000,  0.00000000000000 ]
      - [ -0.00000000000001,  0.00000000000000 ]
      - [ -0.29579219726665,  0.00000000000000 ]
    - # atom 5
      - [  0.00000000000000,  0.00000000000000 ]
      - [ -0.00000000000000,  0.00000000000000 ]
      - [ -0.11676577994199,  0.00000000000000 ]
    - # atom 6
      - [  0.00000000000000,  0.00000000000000 ]
      - [ -0.00000000000001,  0.00000000000000 ]
      - [  0.31306788052013,  0.00000000000000 ]
    - # atom 7
      - [ -0.00000000000000,  0.00000000000000 ]
      - [ -0.00000000000001,  0.00000000000000 ]
      - [  0.51032210613604,  0.00000000000000 ]
    - # atom 8
      - [ -0.00000000000000,  0.00000000000000 ]
      - [ -0.00000000000000,  0.00000000000000 ]
      - [  0.53432221627468,  0.00000000000000 ]
    - # atom 9
      - [  0.00000000000000,  0.00000000000000 ]
      - [ -0.00000000000000,  0.00000000000000 ]
      - [ -0.10791137482684,  0.00000000000000 ]
    - # atom 10
      - [  0.00000000000000,  0.00000000000000 ]
      - [ -0.00000000000000,  0.00000000000000 ]
      - [  0.09753778200603,  0.00000000000000 ]
    - # atom 11
      - [ -0.00000000000000,  0.00000000000000 ]
      - [ -0.00000000000000,  0.00000000000000 ]
      - [ -0.09488897873735,  0.00000000000000 ]
    - # atom 12
      - [  0.00000000000000,  0.00000000000000 ]
      - [ -0.00000000000000,  0.00000000000000 ]
      - [  0.22086630546040,  0.00000000000000 ]
    - # atom 13
      - [ -0.00000000000000,  0.00000000000000 ]
      - [ -0.00000000000000,  0.00000000000000 ]
      - [ -0.03665514824556,  0.00000000000000 ]
    - # atom 14
      - [  0.00000000000000,  0.00000000000000 ]
      - [ -0.00000000000001,  0.00000000000000 ]
      - [ -0.13451059512719,  0.00000000000000 ]
  - # 10
    frequency:    11.9433242821
    eigenvector:
    - # atom 1
      - [ -0.00000000000002,  0.00000000000000 ]
      - [  0.00000000000000,  0.00000000000000 ]
      - [  0.38571708765847,  0.00000000000000 ]
    - # atom 2
      - [ -0.00000000000000,  0.00000000000000 ]
      - [  0.00000000000000,  0.00000000000000 ]
      - [ -0.44583712431419,  0.00000000000000 ]
    - # atom 3
      - [ -0.00000000000001,  0.00000000000000 ]
      - [ -0.00000000000001,  0.00000000000000 ]
      - [  0.07133112799935,  0.00000000000000 ]
    - # atom 4
      - [ -0.00000000000000,  0.00000000000000 ]
      - [  0.00000000000001,  0.00000000000000 ]
      - [ -0.45880525215515,  0.00000000000000 ]
    - # atom 5
      - [  0.00000000000001,  0.00000000000000 ]
      - [  0.00000000000001,  0.00000000000000 ]
      - [  0.35220513584309,  0.00000000000000 ]
    - # atom 6
      - [  0.00000000000000,  0.00000000000000 ]
      - [  0.00000000000002,  0.00000000000000 ]
      - [  0.07917331128239,  0.00000000000000 ]
    - # atom 7
      - [  0.00000000000001,  0.00000000000000 ]
      - [ -0.00000000000002,  0.00000000000000 ]
      - [  0.08921885781171,  0.00000000000000 ]
    - # atom 8
      - [  0.00000000000000,  0.00000000000000 ]
      - [ -0.00000000000001,  0.00000000000000 ]
      - [  0.04886001168916,  0.00000000000000 ]
    - # atom 9
      - [ -0.00000000000000,  0.00000000000000 ]
      - [  0.00000000000000,  0.00000000000000 ]
      - [  0.25026438418046,  0.00000000000000 ]
    - # atom 10
      - [  0.00000000000000,  0.00000000000000 ]
      - [ -0.00000000000000,  0.00000000000000 ]
      - [ -0.28091429408973,  0.00000000000000 ]
    - # atom 11
      - [ -0.00000000000000,  0.00000000000000 ]
      - [  0.00000000000001,  0.00000000000000 ]
      - [ -0.30848080959347,  0.00000000000000 ]
    - # atom 12
      - [  0.00000000000000,  0.00000000000000 ]
      - [  0.00000000000001,  0.00000000000000 ]
      - [  0.06120205747553,  0.00000000000000 ]
    - # atom 13
      - [  0.00000000000000,  0.00000000000000 ]
      - [  0.00000000000000,  0.00000000000000 ]
      - [  0.22757893178020,  0.00000000000000 ]
    - # atom 14
      - [  0.00000000000001,  0.00000000000000 ]
      - [ -0.00000000000003,  0.00000000000000 ]
      - [ -0.06287803153324,  0.00000000000000 ]
  - # 11
    frequency:    12.9072401395
    eigenvector:
    - # atom 1
      - [  0.27171730274055,  0.00000000000000 ]
      - [ -0.09200344919651,  0.00000000000000 ]
      - [  0.00000000000001,  0.00000000000000 ]
    - # atom 2
      - [  0.11993304923622,  0.00000000000000 ]
      - [ -0.13233156900701,  0.00000000000000 ]
      - [ -0.00000000000004,  0.00000000000000 ]
    - # atom 3
      - [  0.14615533299324,  0.00000000000000 ]
      - [  0.15088945921327,  0.00000000000000 ]
      - [  0.00000000000004,  0.00000000000000 ]
    - # atom 4
      - [  0.02977361944893,  0.00000000000000 ]
      - [ -0.20565477742535,  0.00000000000000 ]
      - [ -0.00000000000003,  0.00000000000000 ]
    - # atom 5
      - [ -0.09678576627276,  0.00000000000000 ]
      - [ -0.27877767725879,  0.00000000000000 ]
      - [ -0.00000000000000,  0.00000000000000 ]
    - # atom 6
      - [ -0.05001085077020,  0.00000000000000 ]
      - [ -0.37188887366103,  0.00000000000000 ]
      - [  0.00000000000003,  0.00000000000000 ]
    - # atom 7
      - [ -0.17749176973076,  0.00000000000000 ]
      - [  0.39593277990727,  0.00000000000000 ]
      - [  0.00000000000000,  0.00000000000000 ]
    - # atom 8
      - [ -0.06425179095346,  0.00000000000000 ]
      - [  0.14236033044843,  0.00000000000000 ]
      - [ -0.00000000000001,  0.00000000000000 ]
    - # atom 9
      - [  0.05582169031905,  0.00000000000000 ]
      - [ -0.06031997729063,  0.00000000000000 ]
      - [  0.00000000000000,  0.00000000000000 ]
    - # atom 10
      - [ -0.00319264302392,  0.00000000000000 ]
      - [  0.02885007807092,  0.00000000000000 ]
      - [ -0.00000000000003,  0.00000000000000 ]
    - # atom 11
      - [  0.05790587532152,  0.00000000000000 ]
      - [ -0.14439837159371,  0.00000000000000 ]
      - [ -0.00000000000003,  0.00000000000000 ]
    - # atom 12
      - [ -0.03543982158133,  0.00000000000000 ]
      - [ -0.10734384238909,  0.00000000000000 ]
      - [  0.00000000000002,  0.00000000000000 ]
    - # atom 13
      - [ -0.01865541828827,  0.00000000000000 ]
      - [ -0.06702502684722,  0.00000000000000 ]
      - [ -0.00000000000000,  0.00000000000000 ]
    - # atom 14
      - [ -0.20883318003149,  0.00000000000000 ]
      - [  0.51470473047497,  0.00000000000000 ]
      - [ -0.00000000000001,  0.00000000000000 ]
  - # 12
    frequency:    13.3177296853
    eigenvector:
    - # atom 1
      - [ -0.00000000000002,  0.00000000000000 ]
      - [  0.00000000000000,  0.00000000000000 ]
      - [ -0.15490008501847,  0.00000000000000 ]
    - # atom 2
      - [ -0.00000000000001,  0.00000000000000 ]
      - [  0.00000000000001,  0.00000000000000 ]
      - [ -0.21308604046014,  0.00000000000000 ]
    - # atom 3
      - [ -0.00000000000001,  0.00000000000000 ]
      - [ -0.00000000000001,  0.00000000000000 ]
      - [  0.60780392665322,  0.00000000000000 ]
    - # atom 4
      - [ -0.00000000000000,  0.00000000000000 ]
      - [  0.00000000000001,  0.00000000000000 ]
      - [ -0.03368991700623,  0.00000000000000 ]
    - # atom 5
      - [  0.00000000000001,  0.00000000000000 ]
      - [  0.00000000000002,  0.00000000000000 ]
      - [ -0.31881175596237,  0.00000000000000 ]
    - # atom 6
      - [  0.00000000000000,  0.00000000000000 ]
      - [  0.00000000000002,  0.00000000000000 ]
      - [  0.40843265550801,  0.00000000000000 ]
    - # atom 7
      - [  0.00000000000001,  0.00000000000000 ]
      - [ -0.00000000000002,  0.00000000000000 ]
      - [ -0.02077914404889,  0.00000000000000 ]
    - # atom 8
      - [  0.00000000000000,  0.00000000000000 ]
      - [ -0.00000000000001,  0.00000000000000 ]
      - [ -0.24132165139840,  0.00000000000000 ]
    - # atom 9
      - [ -0.00000000000000,  0.00000000000000 ]
      - [  0.00000000000000,  0.00000000000000 ]
      - [ -0.22827760981164,  0.00000000000000 ]
    - # atom 10
      - [ -0.00000000000000,  0.00000000000000 ]
      - [ -0.00000000000000,  0.00000000000000 ]
      - [ -0.20920295072534,  0.00000000000000 ]
    - # atom 11
      - [ -0.00000000000000,  0.00000000000000 ]
      - [  0.00000000000001,  0.00000000000000 ]
      - [ -0.13519305426705,  0.00000000000000 ]
    - # atom 12
      - [  0.00000000000000,  0.00000000000000 ]
      - [  0.00000000000001,  0.00000000000000 ]
      - [  0.22485873918401,  0.00000000000000 ]
    - # atom 13
      - [  0.00000000000000,  0.00000000000000 ]