phonopy:
  version: 1.12.2
  configuration:
    eigenvectors: ".true."
    fc_symmetry: "1"
    mesh_numbers: "1 1 1"
    dim: "1 1 1"

supercell_matrix:
- [   1,   0,   0 ]
- [   0,   1,   0 ]
- [   0,   0,   1 ]

space_group:
  type: "Pm"
  number: 6
  Hall_symbol: "P -2y"

primitive_cell:
  lattice:
  - [    19.368020000000001,     0.000000000000000,     0.000000000000000 ] # a
  - [     0.000000000000000,    21.031759999999998,     0.000000000000000 ] # b
  - [     0.000000000000000,     0.000000000000000,    15.000000000000000 ] # c
  points:
  - symbol: C  # 1
    coordinates: [  0.437334217598306,  0.508349145723607,  0.500000000000000 ]
    mass: 12.010700
  - symbol: C  # 2
    coordinates: [  0.436229350816072,  0.442227431073364,  0.500000000000000 ]
    mass: 12.010700
  - symbol: C  # 3
    coordinates: [  0.500790628189868,  0.540721347656466,  0.500000000000000 ]
    mass: 12.010700
  - symbol: C  # 4
    coordinates: [  0.562797530001622,  0.506242516776698,  0.500000000000000 ]
    mass: 12.010700
  - symbol: C  # 5
    coordinates: [  0.561614372156708,  0.439930039386100,  0.500000000000000 ]
    mass: 12.010700
  - symbol: C  # 6
    coordinates: [  0.498322932261101,  0.408004224203383,  0.500000000000000 ]
    mass: 12.010700
  - symbol: C  # 7
    coordinates: [  0.502925048591389,  0.610994858468548,  0.500000000000000 ]
    mass: 12.010700
  - symbol: H  # 8
    coordinates: [  0.556187782481192,  0.631756537102766,  0.500000000000000 ]
    mass: 1.007940
  - symbol: H  # 9
    coordinates: [  0.389901420405873,  0.536308079243919,  0.500000000000000 ]
    mass: 1.007940
  - symbol: H  # 10
    coordinates: [  0.387100358216971,  0.416890517558062,  0.500000000000000 ]
    mass: 1.007940
  - symbol: H  # 11
    coordinates: [  0.611889902316517,  0.531850276310429,  0.500000000000000 ]
    mass: 1.007940
  - symbol: H  # 12
    coordinates: [  0.497242017417332,  0.356147169250707,  0.500000000000000 ]
    mass: 1.007940
  - symbol: H  # 13
    coordinates: [  0.609755292245300,  0.413053891170729,  0.500000000000000 ]
    mass: 1.007940
  - symbol: O  # 14
    coordinates: [  0.452103174362852,  0.645664283385803,  0.500000000000000 ]
    mass: 15.999400
  reciprocal_lattice: # without 2pi
  - [     0.051631503891466,     0.000000000000000,     0.000000000000000 ] # a*
  - [     0.000000000000000,     0.047547138232844,     0.000000000000000 ] # b*
  - [     0.000000000000000,     0.000000000000000,     0.066666666666667 ] # c*

unit_cell:
  lattice:
  - [    19.368020000000001,     0.000000000000000,     0.000000000000000 ] # a
  - [     0.000000000000000,    21.031759999999998,     0.000000000000000 ] # b
  - [     0.000000000000000,     0.000000000000000,    15.000000000000000 ] # c
  points:
  - symbol: C  # 1
    coordinates: [  0.437334217598306,  0.508349145723607,  0.500000000000000 ]
    mass: 12.010700
    reduced_to: 1
  - symbol: C  # 2
    coordinates: [  0.436229350816072,  0.442227431073364,  0.500000000000000 ]
    mass: 12.010700
    reduced_to: 2
  - symbol: C  # 3
    coordinates: [  0.500790628189868,  0.540721347656466,  0.500000000000000 ]
    mass: 12.010700
    reduced_to: 3
  - symbol: C  # 4
    coordinates: [  0.562797530001622,  0.506242516776698,  0.500000000000000 ]
    mass: 12.010700
    reduced_to: 4
  - symbol: C  # 5
    coordinates: [  0.561614372156708,  0.439930039386100,  0.500000000000000 ]
    mass: 12.010700
    reduced_to: 5
  - symbol: C  # 6
    coordinates: [  0.498322932261101,  0.408004224203383,  0.500000000000000 ]
    mass: 12.010700
    reduced_to: 6
  - symbol: C  # 7
    coordinates: [  0.502925048591389,  0.610994858468548,  0.500000000000000 ]
    mass: 12.010700
    reduced_to: 7
  - symbol: H  # 8
    coordinates: [  0.556187782481192,  0.631756537102766,  0.500000000000000 ]
    mass: 1.007940
    reduced_to: 8
  - symbol: H  # 9
    coordinates: [  0.389901420405873,  0.536308079243919,  0.500000000000000 ]
    mass: 1.007940
    reduced_to: 9
  - symbol: H  # 10
    coordinates: [  0.387100358216971,  0.416890517558062,  0.500000000000000 ]
    mass: 1.007940
    reduced_to: 10
  - symbol: H  # 11
    coordinates: [  0.611889902316517,  0.531850276310429,  0.500000000000000 ]
    mass: 1.007940
    reduced_to: 11
  - symbol: H  # 12
    coordinates: [  0.497242017417332,  0.356147169250707,  0.500000000000000 ]
    mass: 1.007940
    reduced_to: 12
  - symbol: H  # 13
    coordinates: [  0.609755292245300,  0.413053891170729,  0.500000000000000 ]
    mass: 1.007940
    reduced_to: 13
  - symbol: O  # 14
    coordinates: [  0.452103174362852,  0.645664283385803,  0.500000000000000 ]
    mass: 15.999400
    reduced_to: 14

supercell:
  lattice:
  - [    19.368020000000001,     0.000000000000000,     0.000000000000000 ] # a
  - [     0.000000000000000,    21.031759999999998,     0.000000000000000 ] # b
  - [     0.000000000000000,     0.000000000000000,    15.000000000000000 ] # c
  points:
  - symbol: C  # 1
    coordinates: [  0.437334217598306,  0.508349145723607,  0.500000000000000 ]
    mass: 12.010700
    reduced_to: 1
  - symbol: C  # 2
    coordinates: [  0.436229350816072,  0.442227431073364,  0.500000000000000 ]
    mass: 12.010700
    reduced_to: 2
  - symbol: C  # 3
    coordinates: [  0.500790628189868,  0.540721347656466,  0.500000000000000 ]
    mass: 12.010700
    reduced_to: 3
  - symbol: C  # 4
    coordinates: [  0.562797530001622,  0.506242516776698,  0.500000000000000 ]
    mass: 12.010700
    reduced_to: 4
  - symbol: C  # 5
    coordinates: [  0.561614372156708,  0.439930039386100,  0.500000000000000 ]
    mass: 12.010700
    reduced_to: 5
  - symbol: C  # 6
    coordinates: [  0.498322932261101,  0.408004224203383,  0.500000000000000 ]
    mass: 12.010700
    reduced_to: 6
  - symbol: C  # 7
    coordinates: [  0.502925048591389,  0.610994858468548,  0.500000000000000 ]
    mass: 12.010700
    reduced_to: 7
  - symbol: H  # 8
    coordinates: [  0.556187782481192,  0.631756537102766,  0.500000000000000 ]
    mass: 1.007940
    reduced_to: 8
  - symbol: H  # 9
    coordinates: [  0.389901420405873,  0.536308079243919,  0.500000000000000 ]
    mass: 1.007940
    reduced_to: 9
  - symbol: H  # 10
    coordinates: [  0.387100358216971,  0.416890517558062,  0.500000000000000 ]
    mass: 1.007940
    reduced_to: 10
  - symbol: H  # 11
    coordinates: [  0.611889902316517,  0.531850276310429,  0.500000000000000 ]
    mass: 1.007940
    reduced_to: 11
  - symbol: H  # 12
    coordinates: [  0.497242017417332,  0.356147169250707,  0.500000000000000 ]
    mass: 1.007940
    reduced_to: 12
  - symbol: H  # 13
    coordinates: [  0.609755292245300,  0.413053891170729,  0.500000000000000 ]
    mass: 1.007940
    reduced_to: 13
  - symbol: O  # 14
    coordinates: [  0.452103174362852,  0.645664283385803,  0.500000000000000 ]
    mass: 15.999400
    reduced_to: 14
