# epsilon and Z* of atoms 1 4
   2.51231118  -0.00000000   0.00000000   0.00000000   2.51231118   0.00000000   0.00000000   0.00000000   2.54549379
   2.98579637  -0.00000000   0.00000000   0.00000000   3.62204750  -0.31311508   0.00000000   0.26995924   3.42866928
  -1.31465012  -0.49127930  -0.30663235  -0.43523033  -1.98967424  -0.67588950  -0.24119954  -0.71793477  -1.71449148
