12   
24   

1    
  0.0039489468728654   0.0000000000000000   0.0030668907048160
  -0.2627420000    0.0091348400   -0.0380982700
   0.0454323900   -0.0096167700    0.0179592100
   0.1061894300    0.0453388500    0.0177574600
   0.0207195000   -0.0075027200   -0.0022908100
   0.0055575900    0.0095889600    0.0020437400
  -0.0111100600   -0.0104413700   -0.0022834500
   0.0952707400   -0.0434683000    0.0105734700
  -0.0013707100   -0.0003805700   -0.0009069900
  -0.0017623200    0.0101338200   -0.0008737400
   0.0016719000   -0.0019630600   -0.0021058900
   0.0017372400   -0.0008742200   -0.0020971100
   0.0004063100    0.0000505200    0.0003223900

1    
 -0.0039489468728654   0.0000000000000000  -0.0030668907048160
   0.2624405600   -0.0130698100    0.0379263900
  -0.0443066200    0.0105728900   -0.0179390500
  -0.1037296600   -0.0442435000   -0.0181335900
  -0.0213883700    0.0077312800    0.0022232600
  -0.0054480600   -0.0098955300   -0.0020421700
   0.0104388800    0.0110772300    0.0022295500
  -0.0981378500    0.0456052600   -0.0099688700
   0.0013797700    0.0018053900    0.0008982900
   0.0002698400   -0.0110283800    0.0009314600
  -0.0016110800    0.0005575400    0.0020924000
  -0.0004877300    0.0015122000    0.0021010300
   0.0005803200   -0.0006245600   -0.0003187000

1    
  0.0000000000000000   0.0050000000000000   0.0000000000000000
   0.0140919300   -0.3144692700    0.0000000000
   0.0145928600    0.1550422100    0.0000000000
   0.0306366800    0.0813800300    0.0000000000
   0.0085056300   -0.0265221100    0.0000000000
   0.0123408300    0.0205971000    0.0000000000
  -0.0324374700    0.0138894500    0.0000000000
  -0.0574965800    0.0596706000    0.0000000000
   0.0131859700    0.0061995200    0.0000000000
  -0.0018816800    0.0045105600    0.0000000000
  -0.0011024800   -0.0010352400    0.0000000000
  -0.0013533400    0.0006585000    0.0000000000
   0.0009176600    0.0000786400    0.0000000000

1    
  0.0000000000000000  -0.0050000000000000   0.0000000000000000
  -0.0140501800    0.3190098400    0.0000000000
  -0.0135948300   -0.1600235800    0.0000000000
  -0.0290437000   -0.0814278000    0.0000000000
  -0.0093820500    0.0268513600    0.0000000000
  -0.0123101700   -0.0209933000    0.0000000000
   0.0320069100   -0.0133769800    0.0000000000
   0.0552688600   -0.0588315500    0.0000000000
  -0.0130985000   -0.0046845800    0.0000000000
   0.0003680700   -0.0054723800    0.0000000000
   0.0011676300   -0.0003762600    0.0000000000
   0.0025956200   -0.0000128900    0.0000000000
   0.0000723600   -0.0006618700    0.0000000000

2    
  0.0039489468728654   0.0000000000000000   0.0030668907048160
   0.0448831000    0.0104827300    0.0179564700
  -0.2624348100   -0.0091522500   -0.0380990700
  -0.0100388200    0.0109104700   -0.0022834700
   0.0048637700   -0.0094704700    0.0020439200
   0.0211821800    0.0069138200   -0.0022906200
   0.1046650600   -0.0456760500    0.0177590200
  -0.0017555900   -0.0100885000   -0.0008744000
   0.0016665900    0.0019531300   -0.0021058300
   0.0962451900    0.0427882800    0.0105756200
  -0.0014576600    0.0004601800   -0.0009068300
   0.0005268300   -0.0000113800    0.0003220500
   0.0016541700    0.0008900400   -0.0020968600

2    
 -0.0039489468728654   0.0000000000000000  -0.0030668907048160
  -0.0448257400   -0.0117797600   -0.0179417500
   0.2633312200    0.0127608800    0.0379260700
   0.0105654400   -0.0111874500    0.0022296900
  -0.0056710300    0.0097010800   -0.0020423400
  -0.0209550300   -0.0072118600    0.0022228400
  -0.1034575900    0.0449589200   -0.0181331900
   0.0005354500    0.0109366800    0.0009309800
  -0.0016715300   -0.0005274900    0.0020926400
  -0.0994389500   -0.0449656300   -0.0099658500
   0.0015316900   -0.0018651800    0.0008987300
   0.0007077900    0.0006472400   -0.0003190400
  -0.0006517200   -0.0014674500    0.0021012300

2    
  0.0000000000000000   0.0050000000000000   0.0000000000000000
  -0.0127687200    0.1598460700    0.0000000000
  -0.0134035200   -0.3188080900    0.0000000000
   0.0329493600    0.0129386500    0.0000000000
  -0.0125950300    0.0212631600    0.0000000000
  -0.0096344500   -0.0268740400    0.0000000000
  -0.0302582300    0.0827413000    0.0000000000
   0.0005927000    0.0056045500    0.0000000000
   0.0011028000    0.0003487600    0.0000000000
   0.0543372900    0.0573907600    0.0000000000
  -0.0129705800    0.0048473000    0.0000000000
   0.0001958000    0.0006985800    0.0000000000
   0.0024525900    0.0000030100    0.0000000000

2    
  0.0000000000000000  -0.0050000000000000   0.0000000000000000
   0.0127943000   -0.1552045200    0.0000000000
   0.0143215000    0.3139411100    0.0000000000
  -0.0321818700   -0.0131039800    0.0000000000
   0.0117110600   -0.0209436900    0.0000000000
   0.0096525100    0.0264835300    0.0000000000
   0.0307106500   -0.0823461900    0.0000000000
  -0.0018301200   -0.0046889300    0.0000000000
  -0.0011040900    0.0010794700    0.0000000000
  -0.0567717700   -0.0582316100    0.0000000000
   0.0131240900   -0.0063413300    0.0000000000
   0.0010350000   -0.0000594300    0.0000000000
  -0.0014612600   -0.0005844200    0.0000000000

3    
  0.0039489468728654   0.0000000000000000   0.0030668907048160
   0.1040059600    0.0224944100    0.0181428700
  -0.0097490100    0.0259343600   -0.0022497400
  -0.2433115700    0.0013788600   -0.0380145200
   0.1046172800   -0.0246170700    0.0177507600
  -0.0107244900   -0.0256418000   -0.0022632000
   0.0218141100    0.0001909900    0.0020428700
   0.0062328900    0.0058577700   -0.0008701300
   0.0207035100    0.0010915800    0.0102739400
  -0.0014666800   -0.0009008700   -0.0021077200
   0.0005164500   -0.0007060900    0.0003207000
   0.0075732800   -0.0052913400   -0.0009357200
  -0.0002117200    0.0002091800   -0.0020901200

3    
 -0.0039489468728654   0.0000000000000000  -0.0030668907048160
  -0.1059242200   -0.0246478100   -0.0177481400
   0.0108516700   -0.0255084300    0.0022635100
   0.2439557900    0.0017278300    0.0380149100
  -0.1035030000    0.0235537400   -0.0181421200
   0.0108372700    0.0252472900    0.0022498700
  -0.0224371700    0.0004674500   -0.0020430400
  -0.0075604600   -0.0050617200    0.0009355100
  -0.0207176400   -0.0002241400   -0.0102783900
  -0.0000294500    0.0000317500    0.0020904500
  -0.0004589200   -0.0006983800   -0.0003205800
  -0.0062277000    0.0059104500    0.0008698300
   0.0012138200   -0.0007980300    0.0021081800

3    
  0.0000000000000000   0.0050000000000000   0.0000000000000000
   0.0562553700    0.0809671100    0.0000000000
   0.0145150000    0.0132234200    0.0000000000
   0.0000248800   -0.3432045800    0.0000000000
  -0.0572467300    0.0826138900    0.0000000000
  -0.0135622100    0.0134022000    0.0000000000
  -0.0004900400    0.0000701100    0.0000000000
  -0.0082064800   -0.0046346000    0.0000000000
   0.0008510100    0.1587564500    0.0000000000
  -0.0008728400    0.0022270000    0.0000000000
   0.0000233100   -0.0010499300    0.0000000000
   0.0080391400   -0.0047287600    0.0000000000
   0.0006696000    0.0023576900    0.0000000000

3    
  0.0000000000000000  -0.0050000000000000   0.0000000000000000
  -0.0571890200   -0.0818467800    0.0000000000
  -0.0134566600   -0.0128462700    0.0000000000
   0.0004545400    0.3382851800    0.0000000000
   0.0574868200   -0.0824447100    0.0000000000
   0.0137213600   -0.0138583800    0.0000000000
  -0.0001267800    0.0005361300    0.0000000000
   0.0070036800    0.0054358300    0.0000000000
  -0.0008181600   -0.1522225200    0.0000000000
  -0.0006254500   -0.0030993100    0.0000000000
   0.0000359600   -0.0003443800    0.0000000000
  -0.0068166600    0.0053543100    0.0000000000
   0.0003303600   -0.0029490900    0.0000000000

7    
  0.0039489468728654   0.0000000000000000   0.0030668907048160
   0.0975089600   -0.0455608200    0.0100306400
  -0.0005782000    0.0012237700   -0.0009042300
   0.0072082900   -0.0061849300   -0.0009208400
   0.0007236600    0.0016672900   -0.0021057900
  -0.0000604800    0.0001785000    0.0003220500
  -0.0010191000    0.0004930000   -0.0021061800
  -0.1039250300    0.0488631900   -0.0068460700
  -0.0003507400    0.0008085400    0.0011497600
  -0.0010302200   -0.0005630900    0.0011496900
   0.0000231200   -0.0006091800   -0.0000658600
   0.0010003700    0.0000060200   -0.0000647600
   0.0004993800   -0.0003223000    0.0003616000

7    
 -0.0039489468728654   0.0000000000000000  -0.0030668907048160
  -0.0959247200    0.0435287000   -0.0105127900
   0.0016741600   -0.0007113700    0.0009011200
  -0.0065840100    0.0058759700    0.0008840300
  -0.0015439000   -0.0014011600    0.0020928300
   0.0001374100   -0.0005141800   -0.0003197700
   0.0004021600    0.0001785800    0.0020916900
   0.1011912400   -0.0468559100    0.0073716000
   0.0003406300    0.0006122200   -0.0011400100
  -0.0004553100   -0.0003006300   -0.0011397600
   0.0000330900   -0.0007897100    0.0000643300
   0.0002379900    0.0006337000    0.0000658100
   0.0004912600   -0.0002562100   -0.0003590700

7    
  0.0000000000000000   0.0050000000000000   0.0000000000000000
  -0.0558996000    0.0588412200    0.0000000000
  -0.0126973400    0.0053547900    0.0000000000
   0.0071845000   -0.0051603000    0.0000000000
   0.0010752900    0.0004228800    0.0000000000
   0.0004653300    0.0001961300    0.0000000000
   0.0003324600    0.0029745100    0.0000000000
   0.0595068200   -0.0615062800    0.0000000000
  -0.0002060800    0.0003200500    0.0000000000
  -0.0005792400   -0.0008910000    0.0000000000
  -0.0006404000   -0.0003757800    0.0000000000
   0.0010054800    0.0001551800    0.0000000000
   0.0004527900   -0.0003313900    0.0000000000

7    
  0.0000000000000000  -0.0050000000000000   0.0000000000000000
   0.0568838200   -0.0596768700    0.0000000000
   0.0139349800   -0.0049320100    0.0000000000
  -0.0066432900    0.0048928900    0.0000000000
  -0.0019205600   -0.0001716100    0.0000000000
  -0.0003985000   -0.0005308800    0.0000000000
  -0.0009389800   -0.0023168500    0.0000000000
  -0.0616851400    0.0623938700    0.0000000000
   0.0002105400    0.0010985300    0.0000000000
  -0.0009106700    0.0000314300    0.0000000000
   0.0007008000   -0.0010269000    0.0000000000
   0.0002287800    0.0004859600    0.0000000000
   0.0005382200   -0.0002475500    0.0000000000

8    
  0.0039489468728654   0.0000000000000000   0.0030668907048160
  -0.0013616300    0.0099552400   -0.0008851900
   0.0022253800    0.0011039400   -0.0020997400
   0.0210043500    0.0008527500    0.0102781100
  -0.0018843500   -0.0101817800   -0.0009197200
   0.0016935100   -0.0010769900   -0.0020985300
   0.0001778000    0.0003069200    0.0003203000
  -0.0009598300    0.0002437200    0.0011445600
  -0.0208965100   -0.0002631700   -0.0071145000
  -0.0007489400    0.0001001700   -0.0000664100
  -0.0000240200   -0.0007038400    0.0003601900
   0.0002793000    0.0004850500    0.0011443900
   0.0004949400   -0.0008220100   -0.0000634600

8    
 -0.0039489468728654   0.0000000000000000  -0.0030668907048160
   0.0013990800   -0.0108117500    0.0009201000
  -0.0010993600   -0.0006281700    0.0020982800
  -0.0204166600   -0.0004799600   -0.0102739300
   0.0010916000    0.0104159400    0.0008853600
  -0.0015985800    0.0007250300    0.0020998500
  -0.0007965200    0.0003310200   -0.0003206800
  -0.0002634100    0.0005694300   -0.0011447400
   0.0208803800    0.0011501000    0.0071104100
  -0.0007444800   -0.0009627700    0.0000637800
   0.0000830300   -0.0007011600   -0.0003602600
   0.0009638600    0.0001518500   -0.0011449500
   0.0005010600    0.0002404400    0.0000667800

8    
  0.0000000000000000   0.0050000000000000   0.0000000000000000
  -0.0013334500    0.0050457300    0.0000000000
   0.0021465400   -0.0001174300    0.0000000000
   0.0011050700    0.1529221500    0.0000000000
   0.0010518300    0.0057406900    0.0000000000
  -0.0015683300   -0.0004957300    0.0000000000
  -0.0003154300   -0.0000248300    0.0000000000
  -0.0004786900    0.0000166000    0.0000000000
  -0.0008824200   -0.1622838400    0.0000000000
  -0.0008489200   -0.0001081800    0.0000000000
   0.0000303300   -0.0006620500    0.0000000000
   0.0004890000   -0.0000725500    0.0000000000
   0.0006044700    0.0000394400    0.0000000000

8    
  0.0000000000000000  -0.0050000000000000   0.0000000000000000
   0.0014153700   -0.0058280800    0.0000000000
  -0.0010019400    0.0006007600    0.0000000000
  -0.0005646600   -0.1580541200    0.0000000000
  -0.0018859300   -0.0054344600    0.0000000000
   0.0016424600    0.0001523900    0.0000000000
  -0.0003024100    0.0006771400    0.0000000000
  -0.0007416400    0.0008007700    0.0000000000
   0.0009124100    0.1684809100    0.0000000000
  -0.0006434100   -0.0007505100    0.0000000000
   0.0000287000   -0.0007412500    0.0000000000
   0.0007509400    0.0007138200    0.0000000000
   0.0003900900   -0.0006173700    0.0000000000

9    
  0.0039489468728654   0.0000000000000000   0.0030668907048160
  -0.0010154300   -0.0013065300   -0.0009041400
   0.0991807400    0.0447153100    0.0100281900
  -0.0004297200   -0.0002359200   -0.0021060100
  -0.0004936200   -0.0001892200    0.0003218400
   0.0011689300   -0.0017334600   -0.0021057000
   0.0066141400    0.0061937600   -0.0009216800
  -0.0009021400    0.0005444200    0.0011493500
  -0.0000048600    0.0006302600   -0.0000658300
  -0.1053163400   -0.0481827900   -0.0068423700
  -0.0003170300   -0.0008056700    0.0011494400
   0.0006312500    0.0003571200    0.0003611600
   0.0008840700    0.0000127200   -0.0000642500

9    
 -0.0039489468728654   0.0000000000000000  -0.0030668907048160
   0.0010469900    0.0004571700    0.0009009300
  -0.0964780500   -0.0430202700   -0.0105147100
   0.0010107400   -0.0000691800    0.0020926600
  -0.0003384200    0.0004511700   -0.0003197200
  -0.0010856300    0.0014003700    0.0020928100
  -0.0071882100   -0.0055112500    0.0008840100
  -0.0003095200    0.0002729300   -0.0011399500
  -0.0000053100    0.0007865100    0.0000646500
   0.1022647000    0.0461346500    0.0073726600
   0.0003732200   -0.0005924700   -0.0011399000
   0.0006040100    0.0002808200   -0.0003595100
   0.0001054900   -0.0005904500    0.0000660600

9    
  0.0000000000000000   0.0050000000000000   0.0000000000000000
   0.0134660100    0.0046228800    0.0000000000
   0.0565327900    0.0580289900    0.0000000000
  -0.0002952300    0.0025390000    0.0000000000
  -0.0008210200    0.0005266700    0.0000000000
  -0.0014620000    0.0001634700    0.0000000000
  -0.0074198100   -0.0047409600    0.0000000000
  -0.0007822600   -0.0000497400    0.0000000000
   0.0006721900    0.0010350100    0.0000000000
  -0.0609061800   -0.0608514900    0.0000000000
   0.0002438300   -0.0010950000    0.0000000000
   0.0006676200    0.0002813600    0.0000000000
   0.0001040600   -0.0004601900    0.0000000000

9    
  0.0000000000000000  -0.0050000000000000   0.0000000000000000
  -0.0133232500   -0.0053594100    0.0000000000
  -0.0545721200   -0.0575901000    0.0000000000
   0.0008873000   -0.0027862600    0.0000000000
   0.0000150000   -0.0002359000    0.0000000000
   0.0015534000   -0.0005082700    0.0000000000
   0.0067626300    0.0053405400    0.0000000000
  -0.0004422600    0.0008692000    0.0000000000
  -0.0006775200    0.0003933700    0.0000000000
   0.0585038800    0.0599482000    0.0000000000
  -0.0001736300   -0.0003090600    0.0000000000
   0.0005757500    0.0003627000    0.0000000000
   0.0008908100   -0.0001250200    0.0000000000
