mesh: [     1,     1,     1 ]
nqpoint: 1      
reciprocal_lattice:
- [   0.05177567,   0.00000000,   0.00000000 ] # a*
- [   0.00000000,   0.05009265,   0.00000000 ] # b*
- [   0.00000000,   0.00000000,   0.06666667 ] # c*
natom:   12     
lattice:
- [    19.314090000000000,     0.000000000000000,     0.000000000000000 ] # a
- [     0.000000000000000,    19.963010000000001,     0.000000000000000 ] # b
- [     0.000000000000000,     0.000000000000000,    15.000000000000000 ] # c
points:
- symbol: C  # 1
  coordinates: [  0.437567458451965,  0.535395519621960,  0.500000000000000 ]
  mass: 12.010700
- symbol: C  # 2
  coordinates: [  0.437100440715855,  0.465387025480381,  0.500000000000000 ]
  mass: 12.010700
- symbol: C  # 3
  coordinates: [  0.500466680011005,  0.570008249145484,  0.500000000000000 ]
  mass: 12.010700
- symbol: C  # 4
  coordinates: [  0.562899559284145,  0.534612974519620,  0.500000000000000 ]
  mass: 12.010700
- symbol: C  # 5
  coordinates: [  0.562432541548035,  0.464604981304501,  0.500000000000000 ]
  mass: 12.010700
- symbol: C  # 6
  coordinates: [  0.499533319988995,  0.429991750854516,  0.500000000000000 ]
  mass: 12.010700
- symbol: H  # 7
  coordinates: [  0.388837373637245,  0.563021993880583,  0.500000000000000 ]
  mass: 1.007940
- symbol: H  # 8
  coordinates: [  0.500831270639160,  0.624651202649329,  0.500000000000000 ]
  mass: 1.007940
- symbol: H  # 9
  coordinates: [  0.388006318749812,  0.438371016437240,  0.500000000000000 ]
  mass: 1.007940
- symbol: H  # 10
  coordinates: [  0.499168729360840,  0.375348797350671,  0.500000000000000 ]
  mass: 1.007940
- symbol: H  # 11
  coordinates: [  0.611993681250188,  0.561629484489221,  0.500000000000000 ]
  mass: 1.007940
- symbol: H  # 12
  coordinates: [  0.611162626362755,  0.436978006119417,  0.500000000000000 ]
  mass: 1.007940
phonon:
- q-position: [    0.0000000,    0.0000000,    0.0000000 ]
  weight: 1    
  band:
  - # 1
    frequency:    -0.1586830115
    eigenvector:
    - # atom 1
      - [  0.00000000000000,  0.00000000000000 ]
      - [  0.00000000000872,  0.00000000000000 ]
      - [  0.36223610646412,  0.00000000000000 ]
    - # atom 2
      - [ -0.00000000000155,  0.00000000000000 ]
      - [  0.00000000000873,  0.00000000000000 ]
      - [  0.49580550599627,  0.00000000000000 ]
    - # atom 3
      - [  0.00000000000077,  0.00000000000000 ]
      - [  0.00000000000737,  0.00000000000000 ]
      - [ -0.13358550669219,  0.00000000000000 ]
    - # atom 4
      - [ -0.00000000000002,  0.00000000000000 ]
      - [  0.00000000000603,  0.00000000000000 ]
      - [ -0.49580550598628,  0.00000000000000 ]
    - # atom 5
      - [ -0.00000000000157,  0.00000000000000 ]
      - [  0.00000000000604,  0.00000000000000 ]
      - [ -0.36223610645413,  0.00000000000000 ]
    - # atom 6
      - [ -0.00000000000234,  0.00000000000000 ]
      - [  0.00000000000739,  0.00000000000000 ]
      - [  0.13358550670218,  0.00000000000000 ]
    - # atom 7
      - [  0.00000000000018,  0.00000000000000 ]
      - [  0.00000000000283,  0.00000000000000 ]
      - [  0.18687916754207,  0.00000000000000 ]
    - # atom 8
      - [  0.00000000000057,  0.00000000000000 ]
      - [  0.00000000000213,  0.00000000000000 ]
      - [ -0.06890854769177,  0.00000000000000 ]
    - # atom 9
      - [ -0.00000000000062,  0.00000000000000 ]
      - [  0.00000000000283,  0.00000000000000 ]
      - [  0.25582143108310,  0.00000000000000 ]
    - # atom 10
      - [ -0.00000000000103,  0.00000000000000 ]
      - [  0.00000000000214,  0.00000000000000 ]
      - [  0.06890854769466,  0.00000000000000 ]
    - # atom 11
      - [  0.00000000000017,  0.00000000000000 ]
      - [  0.00000000000144,  0.00000000000000 ]
      - [ -0.25582143108021,  0.00000000000000 ]
    - # atom 12
      - [ -0.00000000000063,  0.00000000000000 ]
      - [  0.00000000000145,  0.00000000000000 ]
      - [ -0.18687916753917,  0.00000000000000 ]
  - # 2
    frequency:    -0.1461123253
    eigenvector:
    - # atom 1
      - [ -0.18347152463779,  0.00000000000000 ]
      - [ -0.31301160951777,  0.00000000000000 ]
      - [  0.00000000000506,  0.00000000000000 ]
    - # atom 2
      - [  0.17931287778633,  0.00000000000000 ]
      - [ -0.31542583399707,  0.00000000000000 ]
      - [  0.00000000000839,  0.00000000000000 ]
    - # atom 3
      - [ -0.36280623395396,  0.00000000000000 ]
      - [  0.00243334008972,  0.00000000000000 ]
      - [  0.00000000000220,  0.00000000000000 ]
    - # atom 4
      - [ -0.17931287774311,  0.00000000000000 ]
      - [  0.31542583401148,  0.00000000000000 ]
      - [  0.00000000000267,  0.00000000000000 ]
    - # atom 5
      - [  0.18347152468100,  0.00000000000000 ]
      - [  0.31301160953219,  0.00000000000000 ]
      - [  0.00000000000601,  0.00000000000000 ]
    - # atom 6
      - [  0.36280623399717,  0.00000000000000 ]
      - [ -0.00243334007531,  0.00000000000000 ]
      - [  0.00000000000886,  0.00000000000000 ]
    - # atom 7
      - [ -0.09462906337562,  0.00000000000000 ]
      - [ -0.16145488172741,  0.00000000000000 ]
      - [  0.00000000000136,  0.00000000000000 ]
    - # atom 8
      - [ -0.18716078483794,  0.00000000000000 ]
      - [  0.00123871231580,  0.00000000000000 ]
      - [ -0.00000000000012,  0.00000000000000 ]
    - # atom 9
      - [  0.09250864511270,  0.00000000000000 ]
      - [ -0.16269665274391,  0.00000000000000 ]
      - [  0.00000000000308,  0.00000000000000 ]
    - # atom 10
      - [  0.18716078485045,  0.00000000000000 ]
      - [ -0.00123871231163,  0.00000000000000 ]
      - [  0.00000000000332,  0.00000000000000 ]
    - # atom 11
      - [ -0.09250864510018,  0.00000000000000 ]
      - [  0.16269665274809,  0.00000000000000 ]
      - [  0.00000000000013,  0.00000000000000 ]
    - # atom 12
      - [  0.09462906338814,  0.00000000000000 ]
      - [  0.16145488173158,  0.00000000000000 ]
      - [  0.00000000000185,  0.00000000000000 ]
  - # 3
    frequency:    -0.0392853171
    eigenvector:
    - # atom 1
      - [  0.00000000000000,  0.00000000000000 ]
      - [ -0.00000000004983,  0.00000000000000 ]
      - [ -0.36337147523973,  0.00000000000000 ]
    - # atom 2
      - [ -0.00000000000202,  0.00000000000000 ]
      - [ -0.00000000004981,  0.00000000000000 ]
      - [  0.13199715069238,  0.00000000000000 ]
    - # atom 3
      - [  0.00000000000100,  0.00000000000000 ]
      - [ -0.00000000005158,  0.00000000000000 ]
      - [ -0.49542465606722,  0.00000000000000 ]
    - # atom 4
      - [ -0.00000000000002,  0.00000000000000 ]
      - [ -0.00000000005333,  0.00000000000000 ]
      - [ -0.13199715063040,  0.00000000000000 ]
    - # atom 5
      - [ -0.00000000000205,  0.00000000000000 ]
      - [ -0.00000000005332,  0.00000000000000 ]
      - [  0.36337147530171,  0.00000000000000 ]
    - # atom 6
      - [ -0.00000000000304,  0.00000000000000 ]
      - [ -0.00000000005156,  0.00000000000000 ]
      - [  0.49542465612919,  0.00000000000000 ]
    - # atom 7
      - [  0.00000000000023,  0.00000000000000 ]
      - [ -0.00000000001404,  0.00000000000000 ]
      - [ -0.18746516117304,  0.00000000000000 ]
    - # atom 8
      - [  0.00000000000075,  0.00000000000000 ]
      - [ -0.00000000001495,  0.00000000000000 ]
      - [ -0.25555971296797,  0.00000000000000 ]
    - # atom 9
      - [ -0.00000000000081,  0.00000000000000 ]
      - [ -0.00000000001403,  0.00000000000000 ]
      - [  0.06810565141159,  0.00000000000000 ]
    - # atom 10
      - [ -0.00000000000134,  0.00000000000000 ]
      - [ -0.00000000001493,  0.00000000000000 ]
      - [  0.25555971298592,  0.00000000000000 ]
    - # atom 11
      - [  0.00000000000022,  0.00000000000000 ]
      - [ -0.00000000001585,  0.00000000000000 ]
      - [ -0.06810565139364,  0.00000000000000 ]
    - # atom 12
      - [ -0.00000000000082,  0.00000000000000 ]
      - [ -0.00000000001584,  0.00000000000000 ]
      - [  0.18746516119099,  0.00000000000000 ]
  - # 4
    frequency:    -0.0000010472
    eigenvector:
    - # atom 1
      - [  0.00000000000000,  0.00000000000000 ]
      - [ -0.10465617571099,  0.00000000000000 ]
      - [ -0.37790203219845,  0.00000000000000 ]
    - # atom 2
      - [  0.00000000000671,  0.00000000000000 ]
      - [ -0.10465617571103,  0.00000000000000 ]
      - [ -0.37790203217580,  0.00000000000000 ]
    - # atom 3
      - [ -0.00000000000332,  0.00000000000000 ]
      - [ -0.10465617570515,  0.00000000000000 ]
      - [ -0.37790203221245,  0.00000000000000 ]
    - # atom 4
      - [  0.00000000000008,  0.00000000000000 ]
      - [ -0.10465617569936,  0.00000000000000 ]
      - [ -0.37790203220380,  0.00000000000000 ]
    - # atom 5
      - [  0.00000000000679,  0.00000000000000 ]
      - [ -0.10465617569940,  0.00000000000000 ]
      - [ -0.37790203218115,  0.00000000000000 ]
    - # atom 6
      - [  0.00000000001011,  0.00000000000000 ]
      - [ -0.10465617570524,  0.00000000000000 ]
      - [ -0.37790203216715,  0.00000000000000 ]
    - # atom 7
      - [ -0.00000000000077,  0.00000000000000 ]
      - [ -0.03031782497825,  0.00000000000000 ]
      - [ -0.10947435823057,  0.00000000000000 ]
    - # atom 8
      - [ -0.00000000000248,  0.00000000000000 ]
      - [ -0.03031782497524,  0.00000000000000 ]
      - [ -0.10947435823780,  0.00000000000000 ]
    - # atom 9
      - [  0.00000000000269,  0.00000000000000 ]
      - [ -0.03031782497827,  0.00000000000000 ]
      - [ -0.10947435821889,  0.00000000000000 ]
    - # atom 10
      - [  0.00000000000445,  0.00000000000000 ]
      - [ -0.03031782497528,  0.00000000000000 ]
      - [ -0.10947435821443,  0.00000000000000 ]
    - # atom 11
      - [ -0.00000000000073,  0.00000000000000 ]
      - [ -0.03031782497225,  0.00000000000000 ]
      - [ -0.10947435823333,  0.00000000000000 ]
    - # atom 12
      - [  0.00000000000273,  0.00000000000000 ]
      - [ -0.03031782497227,  0.00000000000000 ]
      - [ -0.10947435822165,  0.00000000000000 ]
  - # 5
    frequency:     0.0000004956
    eigenvector:
    - # atom 1
      - [  0.00000000004165,  0.00000000000000 ]
      - [ -0.37790203219417,  0.00000000000000 ]
      - [  0.10465617576426,  0.00000000000000 ]
    - # atom 2
      - [  0.00000000004671,  0.00000000000000 ]
      - [ -0.37790203219420,  0.00000000000000 ]
      - [  0.10465617569299,  0.00000000000000 ]
    - # atom 3
      - [  0.00000000003915,  0.00000000000000 ]
      - [ -0.37790203218977,  0.00000000000000 ]
      - [  0.10465617577646,  0.00000000000000 ]
    - # atom 4
      - [  0.00000000004171,  0.00000000000000 ]
      - [ -0.37790203218540,  0.00000000000000 ]
      - [  0.10465617571739,  0.00000000000000 ]
    - # atom 5
      - [  0.00000000004676,  0.00000000000000 ]
      - [ -0.37790203218544,  0.00000000000000 ]
      - [  0.10465617564614,  0.00000000000000 ]
    - # atom 6
      - [  0.00000000004927,  0.00000000000000 ]
      - [ -0.37790203218983,  0.00000000000000 ]
      - [  0.10465617563392,  0.00000000000000 ]
    - # atom 7
      - [  0.00000000001149,  0.00000000000000 ]
      - [ -0.10947435822836,  0.00000000000000 ]
      - [  0.03031782500573,  0.00000000000000 ]
    - # atom 8
      - [  0.00000000001020,  0.00000000000000 ]
      - [ -0.10947435822609,  0.00000000000000 ]
      - [  0.03031782501202,  0.00000000000000 ]
    - # atom 9
      - [  0.00000000001410,  0.00000000000000 ]
      - [ -0.10947435822838,  0.00000000000000 ]
      - [  0.03031782496896,  0.00000000000000 ]
    - # atom 10
      - [  0.00000000001542,  0.00000000000000 ]
      - [ -0.10947435822613,  0.00000000000000 ]
      - [  0.03031782493849,  0.00000000000000 ]
    - # atom 11
      - [  0.00000000001152,  0.00000000000000 ]
      - [ -0.10947435822384,  0.00000000000000 ]
      - [  0.03031782498155,  0.00000000000000 ]
    - # atom 12
      - [  0.00000000001413,  0.00000000000000 ]
      - [ -0.10947435822386,  0.00000000000000 ]
      - [  0.03031782494479,  0.00000000000000 ]
  - # 6
    frequency:     0.0000009504
    eigenvector:
    - # atom 1
      - [  0.39212607800852,  0.00000000000000 ]
      - [  0.00000000006075,  0.00000000000000 ]
      - [ -0.00000000000875,  0.00000000000000 ]
    - # atom 2
      - [  0.39212607798853,  0.00000000000000 ]
      - [  0.00000000006089,  0.00000000000000 ]
      - [ -0.00000000000719,  0.00000000000000 ]
    - # atom 3
      - [  0.39212607801840,  0.00000000000000 ]
      - [  0.00000000004337,  0.00000000000000 ]
      - [ -0.00000000001009,  0.00000000000000 ]
    - # atom 4
      - [  0.39212607800829,  0.00000000000000 ]
      - [  0.00000000002613,  0.00000000000000 ]
      - [ -0.00000000000986,  0.00000000000000 ]
    - # atom 5
      - [  0.39212607798831,  0.00000000000000 ]
      - [  0.00000000002626,  0.00000000000000 ]
      - [ -0.00000000000830,  0.00000000000000 ]
    - # atom 6
      - [  0.39212607797842,  0.00000000000000 ]
      - [  0.00000000004364,  0.00000000000000 ]
      - [ -0.00000000000697,  0.00000000000000 ]
    - # atom 7
      - [  0.11359491899479,  0.00000000000000 ]
      - [  0.00000000002150,  0.00000000000000 ]
      - [ -0.00000000000258,  0.00000000000000 ]
    - # atom 8
      - [  0.11359491899989,  0.00000000000000 ]
      - [  0.00000000001254,  0.00000000000000 ]
      - [ -0.00000000000327,  0.00000000000000 ]
    - # atom 9
      - [  0.11359491898448,  0.00000000000000 ]
      - [  0.00000000002157,  0.00000000000000 ]
      - [ -0.00000000000178,  0.00000000000000 ]
    - # atom 10
      - [  0.11359491897927,  0.00000000000000 ]
      - [  0.00000000001267,  0.00000000000000 ]
      - [ -0.00000000000167,  0.00000000000000 ]
    - # atom 11
      - [  0.11359491899468,  0.00000000000000 ]
      - [  0.00000000000364,  0.00000000000000 ]
      - [ -0.00000000000316,  0.00000000000000 ]
    - # atom 12
      - [  0.11359491898437,  0.00000000000000 ]
      - [  0.00000000000371,  0.00000000000000 ]
      - [ -0.00000000000236,  0.00000000000000 ]
  - # 7
    frequency:    11.8415912879
    eigenvector:
    - # atom 1
      - [  0.00000000000000,  0.00000000000000 ]
      - [ -0.00000000000000,  0.00000000000000 ]
      - [ -0.06300942696478,  0.00000000000000 ]
    - # atom 2
      - [ -0.00000000000000,  0.00000000000000 ]
      - [ -0.00000000000000,  0.00000000000000 ]
      - [  0.44704643953358,  0.00000000000000 ]
    - # atom 3
      - [  0.00000000000000,  0.00000000000000 ]
      - [ -0.00000000000000,  0.00000000000000 ]
      - [ -0.38409907082039,  0.00000000000000 ]
    - # atom 4
      - [  0.00000000000000,  0.00000000000000 ]
      - [ -0.00000000000000,  0.00000000000000 ]
      - [  0.44704643953358,  0.00000000000000 ]
    - # atom 5
      - [ -0.00000000000000,  0.00000000000000 ]
      - [ -0.00000000000000,  0.00000000000000 ]
      - [ -0.06300942696479,  0.00000000000000 ]
    - # atom 6
      - [ -0.00000000000000,  0.00000000000000 ]
      - [ -0.00000000000000,  0.00000000000000 ]
      - [ -0.38409907082039,  0.00000000000000 ]
    - # atom 7
      - [  0.00000000000000,  0.00000000000000 ]
      - [ -0.00000000000000,  0.00000000000000 ]
      - [ -0.04094997366429,  0.00000000000000 ]
    - # atom 8
      - [  0.00000000000000,  0.00000000000000 ]
      - [ -0.00000000000000,  0.00000000000000 ]
      - [ -0.24971685731520,  0.00000000000000 ]
    - # atom 9
      - [  0.00000000000000,  0.00000000000000 ]
      - [ -0.00000000000000,  0.00000000000000 ]
      - [  0.29088105410691,  0.00000000000000 ]
    - # atom 10
      - [ -0.00000000000000,  0.00000000000000 ]
      - [ -0.00000000000000,  0.00000000000000 ]
      - [ -0.24971685731520,  0.00000000000000 ]
    - # atom 11
      - [  0.00000000000000,  0.00000000000000 ]
      - [ -0.00000000000000,  0.00000000000000 ]
      - [  0.29088105410691,  0.00000000000000 ]
    - # atom 12
      - [  0.00000000000000,  0.00000000000000 ]
      - [ -0.00000000000000,  0.00000000000000 ]
      - [ -0.04094997366429,  0.00000000000000 ]
  - # 8
    frequency:    11.8423467224
    eigenvector:
    - # atom 1
      - [  0.00000000000000,  0.00000000000000 ]
      - [ -0.00000000000000,  0.00000000000000 ]
      - [ -0.47985264101397,  0.00000000000000 ]
    - # atom 2
      - [  0.00000000000000,  0.00000000000000 ]
      - [ -0.00000000000000,  0.00000000000000 ]
      - [  0.18535182830670,  0.00000000000000 ]
    - # atom 3
      - [ -0.00000000000000,  0.00000000000000 ]
      - [ -0.00000000000000,  0.00000000000000 ]
      - [  0.29452824084884,  0.00000000000000 ]
    - # atom 4
      - [ -0.00000000000000,  0.00000000000000 ]
      - [ -0.00000000000000,  0.00000000000000 ]
      - [  0.18535182830670,  0.00000000000000 ]
    - # atom 5
      - [ -0.00000000000000,  0.00000000000000 ]
      - [ -0.00000000000000,  0.00000000000000 ]
      - [ -0.47985264101397,  0.00000000000000 ]
    - # atom 6
      - [  0.00000000000000,  0.00000000000000 ]
      - [ -0.00000000000000,  0.00000000000000 ]
      - [  0.29452824084885,  0.00000000000000 ]
    - # atom 7
      - [ -0.00000000000000,  0.00000000000000 ]
      - [ -0.00000000000000,  0.00000000000000 ]
      - [ -0.31214638867188,  0.00000000000000 ]
    - # atom 8
      - [  0.00000000000000,  0.00000000000000 ]
      - [ -0.00000000000000,  0.00000000000000 ]
      - [  0.19149242912616,  0.00000000000000 ]
    - # atom 9
      - [  0.00000000000000,  0.00000000000000 ]
      - [ -0.00000000000000,  0.00000000000000 ]
      - [  0.12055927846597,  0.00000000000000 ]
    - # atom 10
      - [ -0.00000000000000,  0.00000000000000 ]
      - [ -0.00000000000000,  0.00000000000000 ]
      - [  0.19149242912616,  0.00000000000000 ]
    - # atom 11
      - [ -0.00000000000000,  0.00000000000000 ]
      - [ -0.00000000000000,  0.00000000000000 ]
      - [  0.12055927846596,  0.00000000000000 ]
    - # atom 12
      - [  0.00000000000000,  0.00000000000000 ]
      - [ -0.00000000000000,  0.00000000000000 ]
      - [ -0.31214638867188,  0.00000000000000 ]
  - # 9
    frequency:    17.9972291556
    eigenvector:
    - # atom 1
      - [  0.30341030480078,  0.00000000000000 ]
      - [  0.04227263413933,  0.00000000000000 ]
      - [ -0.00000000000000,  0.00000000000000 ]
    - # atom 2
      - [  0.32207619008249,  0.00000000000000 ]
      - [ -0.02793501751996,  0.00000000000000 ]
      - [ -0.00000000000000,  0.00000000000000 ]
    - # atom 3
      - [ -0.00304557185586,  0.00000000000000 ]
      - [  0.50634726945778,  0.00000000000000 ]
      - [  0.00000000000000,  0.00000000000000 ]
    - # atom 4
      - [ -0.32207619008249,  0.00000000000000 ]
      - [  0.02793501751996,  0.00000000000000 ]
      - [ -0.00000000000001,  0.00000000000000 ]
    - # atom 5
      - [ -0.30341030480078,  0.00000000000000 ]
      - [ -0.04227263413933,  0.00000000000000 ]
      - [  0.00000000000000,  0.00000000000000 ]
    - # atom 6
      - [  0.00304557185586,  0.00000000000000 ]
      - [ -0.50634726945778,  0.00000000000000 ]
      - [ -0.00000000000001,  0.00000000000000 ]
    - # atom 7
      - [  0.01791026761280,  0.00000000000000 ]
      - [ -0.10647519166147,  0.00000000000000 ]
      - [  0.00000000000000,  0.00000000000000 ]
    - # atom 8
      - [  0.00370509280306,  0.00000000000000 ]
      - [  0.14587944369006,  0.00000000000000 ]
      - [ -0.00000000000000,  0.00000000000000 ]
    - # atom 9
      - [  0.02709347749431,  0.00000000000000 ]
      - [  0.10751093281337,  0.00000000000000 ]
      - [ -0.00000000000000,  0.00000000000000 ]
    - # atom 10
      - [ -0.00370509280306,  0.00000000000000 ]
      - [ -0.14587944369006,  0.00000000000000 ]
      - [ -0.00000000000000,  0.00000000000000 ]
    - # atom 11
      - [ -0.02709347749431,  0.00000000000000 ]
      - [ -0.10751093281337,  0.00000000000000 ]
      - [ -0.00000000000000,  0.00000000000000 ]
    - # atom 12
      - [ -0.01791026761280,  0.00000000000000 ]
      - [  0.10647519166147,  0.00000000000000 ]
      - [  0.00000000000000,  0.00000000000000 ]
  - # 10
    frequency:    17.9982916667
    eigenvector:
    - # atom 1
      - [ -0.33327786225633,  0.00000000000000 ]
      - [  0.31388741904125,  0.00000000000000 ]
      - [ -0.00000000000000,  0.00000000000000 ]
    - # atom 2
      - [  0.31853082183715,  0.00000000000000 ]
      - [  0.31146479831845,  0.00000000000000 ]
      - [ -0.00000000000000,  0.00000000000000 ]
    - # atom 3
      - [ -0.21570099778330,  0.00000000000000 ]
      - [ -0.01321747110661,  0.00000000000000 ]
      - [  0.00000000000000,  0.00000000000000 ]
    - # atom 4
      - [ -0.31853082183715,  0.00000000000000 ]
      - [ -0.31146479831845,  0.00000000000000 ]
      - [ -0.00000000000000,  0.00000000000000 ]
    - # atom 5
      - [  0.33327786225633,  0.00000000000000 ]
      - [ -0.31388741904125,  0.00000000000000 ]
      - [  0.00000000000000,  0.00000000000000 ]
    - # atom 6
      - [  0.21570099778330,  0.00000000000000 ]
      - [  0.01321747110661,  0.00000000000000 ]
      - [ -0.00000000000000,  0.00000000000000 ]
    - # atom 7
      - [ -0.13350295686989,  0.00000000000000 ]
      - [  0.02655167797455,  0.00000000000000 ]
      - [  0.00000000000000,  0.00000000000000 ]
    - # atom 8
      - [  0.09392694561655,  0.00000000000000 ]
      - [ -0.00480040642092,  0.00000000000000 ]
      - [ -0.00000000000000,  0.00000000000000 ]
    - # atom 9
      - [  0.13233960274762,  0.00000000000000 ]
      - [  0.01842854015316,  0.00000000000000 ]
      - [ -0.00000000000000,  0.00000000000000 ]
    - # atom 10
      - [ -0.09392694561655,  0.00000000000000 ]
      - [  0.00480040642092,  0.00000000000000 ]
      - [ -0.00000000000000,  0.00000000000000 ]
    - # atom 11
      - [ -0.13233960274762,  0.00000000000000 ]
      - [ -0.01842854015317,  0.00000000000000 ]
      - [  0.00000000000000,  0.00000000000000 ]
    - # atom 12
      - [  0.13350295686989,  0.00000000000000 ]
      - [ -0.02655167797455,  0.00000000000000 ]
      - [  0.00000000000000,  0.00000000000000 ]
  - # 11
    frequency:    19.8328258870
    eigenvector:
    - # atom 1
      - [ -0.00000000000000,  0.00000000000000 ]
      - [ -0.00000000000000,  0.00000000000000 ]
      - [  0.11366901971237,  0.00000000000000 ]
    - # atom 2
      - [ -0.00000000000000,  0.00000000000000 ]
      - [ -0.00000000000000,  0.00000000000000 ]
      - [  0.11374443829594,  0.00000000000000 ]
    - # atom 3
      - [  0.00000000000000,  0.00000000000000 ]
      - [ -0.00000000000000,  0.00000000000000 ]
      - [  0.11337126239713,  0.00000000000000 ]
    - # atom 4
      - [  0.00000000000000,  0.00000000000000 ]
      - [ -0.00000000000000,  0.00000000000000 ]
      - [  0.11374443829594,  0.00000000000000 ]
    - # atom 5
      - [  0.00000000000000,  0.00000000000000 ]
      - [  0.00000000000000,  0.00000000000000 ]
      - [  0.11366901971238,  0.00000000000000 ]
    - # atom 6
      - [ -0.00000000000000,  0.00000000000000 ]
      - [  0.00000000000000,  0.00000000000000 ]
      - [  0.11337126239713,  0.00000000000000 ]
    - # atom 7
      - [  0.00000000000000,  0.00000000000000 ]
      - [  0.00000000000000,  0.00000000000000 ]
      - [ -0.39218061197138,  0.00000000000000 ]
    - # atom 8
      - [ -0.00000000000000,  0.00000000000000 ]
      - [ -0.00000000000000,  0.00000000000000 ]
      - [ -0.39198704653283,  0.00000000000000 ]
    - # atom 9
      - [ -0.00000000000000,  0.00000000000000 ]
      - [ -0.00000000000000,  0.00000000000000 ]
      - [ -0.39221044927572,  0.00000000000000 ]
    - # atom 10
      - [  0.00000000000000,  0.00000000000000 ]
      - [  0.00000000000000,  0.00000000000000 ]
      - [ -0.39198704653284,  0.00000000000000 ]
    - # atom 11
      - [  0.00000000000000,  0.00000000000000 ]
      - [  0.00000000000000,  0.00000000000000 ]
      - [ -0.39221044927573,  0.00000000000000 ]
    - # atom 12
      - [ -0.00000000000000,  0.00000000000000 ]
      - [ -0.00000000000000,  0.00000000000000 ]
      - [ -0.39218061197138,  0.00000000000000 ]
  - # 12
    frequency:    21.0930221429
    eigenvector:
    - # atom 1
      - [ -0.00000000000000,  0.00000000000000 ]
      - [ -0.00000000000000,  0.00000000000000 ]
      - [ -0.36313518799253,  0.00000000000000 ]
    - # atom 2
      - [ -0.00000000000000,  0.00000000000000 ]
      - [ -0.00000000000000,  0.00000000000000 ]
      - [  0.36308382788095,  0.00000000000000 ]
    - # atom 3
      - [  0.00000000000000,  0.00000000000000 ]
      - [ -0.00000000000000,  0.00000000000000 ]
      - [  0.36315635542914,  0.00000000000000 ]
    - # atom 4
      - [  0.00000000000000,  0.00000000000000 ]
      - [  0.00000000000000,  0.00000000000000 ]
      - [ -0.36308382788095,  0.00000000000000 ]
    - # atom 5
      - [ -0.00000000000000,  0.00000000000000 ]
      - [  0.00000000000000,  0.00000000000000 ]
      - [  0.36313518799253,  0.00000000000000 ]
    - # atom 6
      - [ -0.00000000000000,  0.00000000000000 ]
      - [  0.00000000000000,  0.00000000000000 ]
      - [ -0.36315635542914,  0.00000000000000 ]
    - # atom 7
      - [  0.00000000000000,  0.00000000000000 ]
      - [  0.00000000000000,  0.00000000000000 ]
      - [ -0.18657969775872,  0.00000000000000 ]
    - # atom 8
      - [ -0.00000000000000,  0.00000000000000 ]
      - [ -0.00000000000000,  0.00000000000000 ]
      - [  0.18646112447024,  0.00000000000000 ]
    - # atom 9
      - [ -0.00000000000000,  0.00000000000000 ]
      - [ -0.00000000000000,  0.00000000000000 ]
      - [  0.18665662626849,  0.00000000000000 ]
    - # atom 10
      - [  0.00000000000000,  0.00000000000000 ]
      - [  0.00000000000000,  0.00000000000000 ]
      - [ -0.18646112447024,  0.00000000000000 ]
    - # atom 11
      - [  0.00000000000000,  0.00000000000000 ]
      - [  0.00000000000000,  0.00000000000000 ]
      - [ -0.18665662626848,  0.00000000000000 ]
    - # atom 12
      - [ -0.00000000000000,  0.00000000000000 ]
      - [ -0.00000000000000,  0.00000000000000 ]
      - [  0.18657969775872,  0.00000000000000 ]
  - # 13
    frequency:    25.0307608599
    eigenvector:
    - # atom 1
      - [ -0.00000000000000,  0.00000000000000 ]
      - [ -0.00000000000000,  0.00000000000000 ]
      - [  0.21479827639987,  0.00000000000000 ]
    - # atom 2
      - [ -0.00000000000000,  0.00000000000000 ]
      - [ -0.00000000000000,  0.00000000000000 ]
      - [  0.24141681426541,  0.00000000000000 ]
    - # atom 3
      - [ -0.00000000000000,  0.00000000000000 ]
      - [ -0.00000000000000,  0.00000000000000 ]
      - [ -0.02637934288285,  0.00000000000000 ]
    - # atom 4
      - [  0.00000000000000,  0.00000000000000 ]
      - [ -0.00000000000000,  0.00000000000000 ]
      - [ -0.24141681426540,  0.00000000000000 ]
    - # atom 5
      - [  0.00000000000000,  0.00000000000000 ]
      - [ -0.00000000000000,  0.00000000000000 ]
      - [ -0.21479827639987,  0.00000000000000 ]
    - # atom 6
      - [  0.00000000000000,  0.00000000000000 ]
      - [ -0.00000000000000,  0.00000000000000 ]
      - [  0.02637934288285,  0.00000000000000 ]
    - # atom 7
      - [ -0.00000000000000,  0.00000000000000 ]
      - [ -0.00000000000000,  0.00000000000000 ]
      - [ -0.41642712126197,  0.00000000000000 ]
    - # atom 8
      - [ -0.00000000000000,  0.00000000000000 ]
      - [ -0.00000000000000,  0.00000000000000 ]
      - [  0.05121541537902,  0.00000000000000 ]
    - # atom 9
      - [ -0.00000000000000,  0.00000000000000 ]
      - [ -0.00000000000000,  0.00000000000000 ]
      - [ -0.46781319607262,  0.00000000000000 ]
    - # atom 10
      - [  0.00000000000000,  0.00000000000000 ]
      - [ -0.00000000000000,  0.00000000000000 ]
      - [ -0.05121541537902,  0.00000000000000 ]
    - # atom 11
      - [  0.00000000000000,  0.00000000000000 ]
      - [ -0.00000000000000,  0.00000000000000 ]
      - [  0.46781319607262,  0.00000000000000 ]
    - # atom 12
      - [  0.00000000000000,  0.00000000000000 ]
      - [ -0.00000000000000,  0.00000000000000 ]
      - [  0.41642712126197,  0.00000000000000 ]
  - # 14
    frequency:    25.0357680614
    eigenvector:
    - # atom 1
      - [ -0.00000000000000,  0.00000000000000 ]
      - [ -0.00000000000000,  0.00000000000000 ]
      - [  0.15477387233406,  0.00000000000000 ]
    - # atom 2
      - [  0.00000000000000,  0.00000000000000 ]
      - [  0.00000000000000,  0.00000000000000 ]
      - [ -0.10896667472989,  0.00000000000000 ]
    - # atom 3
      - [ -0.00000000000000,  0.00000000000000 ]
      - [ -0.00000000000000,  0.00000000000000 ]
      - [  0.26318110859435,  0.00000000000000 ]
    - # atom 4
      - [  0.00000000000000,  0.00000000000000 ]
      - [ -0.00000000000000,  0.00000000000000 ]
      - [  0.10896667472989,  0.00000000000000 ]
    - # atom 5
      - [ -0.00000000000000,  0.00000000000000 ]
      - [  0.00000000000000,  0.00000000000000 ]
      - [ -0.15477387233406,  0.00000000000000 ]
    - # atom 6
      - [  0.00000000000000,  0.00000000000000 ]
      - [ -0.00000000000000,  0.00000000000000 ]
      - [ -0.26318110859435,  0.00000000000000 ]
    - # atom 7
      - [  0.00000000000000,  0.00000000000000 ]
      - [  0.00000000000000,  0.00000000000000 ]
      - [ -0.29987998113547,  0.00000000000000 ]
    - # atom 8
      - [ -0.00000000000000,  0.00000000000000 ]
      - [ -0.00000000000000,  0.00000000000000 ]
      - [ -0.51032497709043,  0.00000000000000 ]
    - # atom 9
      - [  0.00000000000000,  0.00000000000000 ]
      - [  0.00000000000000,  0.00000000000000 ]
      - [  0.21106262338919,  0.00000000000000 ]
    - # atom 10
      - [  0.00000000000000,  0.00000000000000 ]
      - [ -0.00000000000000,  0.00000000000000 ]
      - [  0.51032497709042,  0.00000000000000 ]
    - # atom 11
      - [  0.00000000000000,  0.00000000000000 ]
      - [ -0.00000000000000,  0.00000000000000 ]
      - [ -0.21106262338919,  0.00000000000000 ]
    - # atom 12
      - [ -0.00000000000000,  0.00000000000000 ]
      - [ -0.00000000000000,  0.00000000000000 ]
      - [  0.29987998113547,  0.00000000000000 ]