# epsilon and Z* of atoms 1 4
   2.35313082  -0.00000000   0.00000000   0.00000000   2.35313082   0.00000000   0.00000000   0.00000000   2.38113010
   3.01039504  -0.00000000   0.00000000   0.00000000   3.61885095  -0.30288904   0.00000000   0.26750462   3.43292678
  -1.32832422  -0.47731122  -0.30543405  -0.42729256  -1.99047006  -0.66188834  -0.23925720  -0.70299687  -1.71819316
