mesh: [     1,     1,     1 ]
nqpoint: 1      
reciprocal_lattice:
- [   0.05136189,   0.00000000,   0.00000000 ] # a*
- [   0.00000000,   0.04850547,   0.00000000 ] # b*
- [   0.00000000,   0.00000000,   0.06666667 ] # c*
natom:   13     
lattice:
- [    19.4696899999999999,     0.0000000000000000,     0.0000000000000000 ] # a
- [     0.0000000000000000,    20.6162300000000016,     0.0000000000000000 ] # b
- [     0.0000000000000000,     0.0000000000000000,    15.0000000000000000 ] # c
atoms:
- symbol: C  # 1
  position: [  0.4404581354673818,  0.5214620083736656,  0.5000000000000000 ]
  mass: 12.010700
- symbol: C  # 2
  position: [  0.4354717447433993,  0.4538968777139598,  0.5000000000000000 ]
  mass: 12.010700
- symbol: C  # 3
  position: [  0.5051905130854080,  0.5510277623994554,  0.5000000000000000 ]
  mass: 12.010700
- symbol: C  # 4
  position: [  0.5647519468077987,  0.5130042010256566,  0.5000000000000000 ]
  mass: 12.010700
- symbol: C  # 5
  position: [  0.5590454349798215,  0.4455875525417947,  0.5000000000000000 ]
  mass: 12.010700
- symbol: C  # 6
  position: [  0.4946242755581268,  0.4155807876705650,  0.5000000000000000 ]
  mass: 12.010700
- symbol: H  # 7
  position: [  0.3941277131330173,  0.5513975988406110,  0.5000000000000000 ]
  mass: 1.007940
- symbol: H  # 8
  position: [  0.3848337556080804,  0.4312690155494855,  0.5000000000000000 ]
  mass: 1.007940
- symbol: H  # 9
  position: [  0.6146821632292908,  0.5369031757314335,  0.5000000000000000 ]
  mass: 1.007940
- symbol: H  # 10
  position: [  0.4906094376480585,  0.3628527161043164,  0.5000000000000000 ]
  mass: 1.007940
- symbol: H  # 11
  position: [  0.6056095790797348,  0.4161633767702304,  0.5000000000000000 ]
  mass: 1.007940
- symbol: H  # 12
  position: [  0.4683094240257947,  0.6377005289812103,  0.5000000000000000 ]
  mass: 1.007940
- symbol: O  # 13
  position: [  0.5133770958574082,  0.6172650674160810,  0.5000000000000000 ]
  mass: 15.999400
supercell_matrix:
- [    1,    0,    0 ]
- [    0,    1,    0 ]
- [    0,    0,    1 ]

phonon:
- q-position: [    0.0000000,    0.0000000,    0.0000000 ]
  weight: 1    
  band:
  - # 1
    frequency:    -0.3243620289
    eigenvector:
    - # atom 1
      - [ -0.00000000000485,  0.00000000000000 ]
      - [  0.00000000000112,  0.00000000000000 ]
      - [  0.38749450617700,  0.00000000000000 ]
    - # atom 2
      - [ -0.00000000000390,  0.00000000000000 ]
      - [  0.00000000000105,  0.00000000000000 ]
      - [  0.52081232602916,  0.00000000000000 ]
    - # atom 3
      - [ -0.00000000000527,  0.00000000000000 ]
      - [  0.00000000000198,  0.00000000000000 ]
      - [ -0.08921131466108,  0.00000000000000 ]
    - # atom 4
      - [ -0.00000000000473,  0.00000000000000 ]
      - [  0.00000000000277,  0.00000000000000 ]
      - [ -0.42901480547690,  0.00000000000000 ]
    - # atom 5
      - [ -0.00000000000378,  0.00000000000000 ]
      - [  0.00000000000270,  0.00000000000000 ]
      - [ -0.29037518636130,  0.00000000000000 ]
    - # atom 6
      - [ -0.00000000000336,  0.00000000000000 ]
      - [  0.00000000000184,  0.00000000000000 ]
      - [  0.18338186695999,  0.00000000000000 ]
    - # atom 7
      - [ -0.00000000000153,  0.00000000000000 ]
      - [  0.00000000000014,  0.00000000000000 ]
      - [  0.18934486668551,  0.00000000000000 ]
    - # atom 8
      - [ -0.00000000000104,  0.00000000000000 ]
      - [  0.00000000000011,  0.00000000000000 ]
      - [  0.25853786992370,  0.00000000000000 ]
    - # atom 9
      - [ -0.00000000000147,  0.00000000000000 ]
      - [  0.00000000000100,  0.00000000000000 ]
      - [ -0.23109769522834,  0.00000000000000 ]
    - # atom 10
      - [ -0.00000000000076,  0.00000000000000 ]
      - [  0.00000000000052,  0.00000000000000 ]
      - [  0.08354274640692,  0.00000000000000 ]
    - # atom 11
      - [ -0.00000000000098,  0.00000000000000 ]
      - [  0.00000000000096,  0.00000000000000 ]
      - [ -0.16124712482756,  0.00000000000000 ]
    - # atom 12
      - [ -0.00000000000188,  0.00000000000000 ]
      - [  0.00000000000043,  0.00000000000000 ]
      - [  0.00715861558709,  0.00000000000000 ]
    - # atom 13
      - [ -0.00000000000715,  0.00000000000000 ]
      - [  0.00000000000241,  0.00000000000000 ]
      - [ -0.28198011239896,  0.00000000000000 ]
  - # 2
    frequency:    -0.0000003844
    eigenvector:
    - # atom 1
      - [  0.00000000005277,  0.00000000000000 ]
      - [  0.18559056127867,  0.00000000000000 ]
      - [ -0.30525156666656,  0.00000000000000 ]
    - # atom 2
      - [  0.00000000006443,  0.00000000000000 ]
      - [  0.18559056127786,  0.00000000000000 ]
      - [ -0.30525156667055,  0.00000000000000 ]
    - # atom 3
      - [  0.00000000004767,  0.00000000000000 ]
      - [  0.18559056128923,  0.00000000000000 ]
      - [ -0.30525156666618,  0.00000000000000 ]
    - # atom 4
      - [  0.00000000005423,  0.00000000000000 ]
      - [  0.18559056129893,  0.00000000000000 ]
      - [ -0.30525156666981,  0.00000000000000 ]
    - # atom 5
      - [  0.00000000006586,  0.00000000000000 ]
      - [  0.18559056129800,  0.00000000000000 ]
      - [ -0.30525156667378,  0.00000000000000 ]
    - # atom 6
      - [  0.00000000007104,  0.00000000000000 ]
      - [  0.18559056128750,  0.00000000000000 ]
      - [ -0.30525156667418,  0.00000000000000 ]
    - # atom 7
      - [  0.00000000001379,  0.00000000000000 ]
      - [  0.05376368967969,  0.00000000000000 ]
      - [ -0.08842826053193,  0.00000000000000 ]
    - # atom 8
      - [  0.00000000001980,  0.00000000000000 ]
      - [  0.05376368967926,  0.00000000000000 ]
      - [ -0.08842826053398,  0.00000000000000 ]
    - # atom 9
      - [  0.00000000001452,  0.00000000000000 ]
      - [  0.05376368969011,  0.00000000000000 ]
      - [ -0.08842826053359,  0.00000000000000 ]
    - # atom 10
      - [  0.00000000002321,  0.00000000000000 ]
      - [  0.05376368968425,  0.00000000000000 ]
      - [ -0.08842826053586,  0.00000000000000 ]
    - # atom 11
      - [  0.00000000002055,  0.00000000000000 ]
      - [  0.05376368968968,  0.00000000000000 ]
      - [ -0.08842826053566,  0.00000000000000 ]
    - # atom 12
      - [  0.00000000000948,  0.00000000000000 ]
      - [  0.05376368968321,  0.00000000000000 ]
      - [ -0.08842826053087,  0.00000000000000 ]
    - # atom 13
      - [  0.00000000004185,  0.00000000000000 ]
      - [  0.21420202572469,  0.00000000000000 ]
      - [ -0.35231050264641,  0.00000000000000 ]
  - # 3
    frequency:     0.0000012824
    eigenvector:
    - # atom 1
      - [ -0.35724274015251,  0.00000000000000 ]
      - [  0.00000000002089,  0.00000000000000 ]
      - [ -0.00000000004512,  0.00000000000000 ]
    - # atom 2
      - [ -0.35724274016220,  0.00000000000000 ]
      - [  0.00000000002157,  0.00000000000000 ]
      - [ -0.00000000007112,  0.00000000000000 ]
    - # atom 3
      - [ -0.35724274014828,  0.00000000000000 ]
      - [  0.00000000001213,  0.00000000000000 ]
      - [ -0.00000000004001,  0.00000000000000 ]
    - # atom 4
      - [ -0.35724274015372,  0.00000000000000 ]
      - [  0.00000000000408,  0.00000000000000 ]
      - [ -0.00000000006092,  0.00000000000000 ]
    - # atom 5
      - [ -0.35724274016338,  0.00000000000000 ]
      - [  0.00000000000485,  0.00000000000000 ]
      - [ -0.00000000008679,  0.00000000000000 ]
    - # atom 6
      - [ -0.35724274016768,  0.00000000000000 ]
      - [  0.00000000001357,  0.00000000000000 ]
      - [ -0.00000000009208,  0.00000000000000 ]
    - # atom 7
      - [ -0.10348957236891,  0.00000000000000 ]
      - [  0.00000000000787,  0.00000000000000 ]
      - [ -0.00000000000833,  0.00000000000000 ]
    - # atom 8
      - [ -0.10348957237390,  0.00000000000000 ]
      - [  0.00000000000823,  0.00000000000000 ]
      - [ -0.00000000002171,  0.00000000000000 ]
    - # atom 9
      - [ -0.10348957236951,  0.00000000000000 ]
      - [ -0.00000000000078,  0.00000000000000 ]
      - [ -0.00000000001638,  0.00000000000000 ]
    - # atom 10
      - [ -0.10348957237673,  0.00000000000000 ]
      - [  0.00000000000409,  0.00000000000000 ]
      - [ -0.00000000003253,  0.00000000000000 ]
    - # atom 11
      - [ -0.10348957237452,  0.00000000000000 ]
      - [ -0.00000000000042,  0.00000000000000 ]
      - [ -0.00000000002984,  0.00000000000000 ]
    - # atom 12
      - [ -0.10348957236534,  0.00000000000000 ]
      - [  0.00000000000495,  0.00000000000000 ]
      - [ -0.00000000000064,  0.00000000000000 ]
    - # atom 13
      - [ -0.41231686612214,  0.00000000000000 ]
      - [  0.00000000001273,  0.00000000000000 ]
      - [ -0.00000000001713,  0.00000000000000 ]
  - # 4
    frequency:     0.0000014379
    eigenvector:
    - # atom 1
      - [  0.00000000001937,  0.00000000000000 ]
      - [ -0.30525156666702,  0.00000000000000 ]
      - [ -0.18559056127627,  0.00000000000000 ]
    - # atom 2
      - [  0.00000000001728,  0.00000000000000 ]
      - [ -0.30525156666688,  0.00000000000000 ]
      - [ -0.18559056129007,  0.00000000000000 ]
    - # atom 3
      - [  0.00000000002028,  0.00000000000000 ]
      - [ -0.30525156666891,  0.00000000000000 ]
      - [ -0.18559056127961,  0.00000000000000 ]
    - # atom 4
      - [  0.00000000001911,  0.00000000000000 ]
      - [ -0.30525156667065,  0.00000000000000 ]
      - [ -0.18559056129671,  0.00000000000000 ]
    - # atom 5
      - [  0.00000000001702,  0.00000000000000 ]
      - [ -0.30525156667048,  0.00000000000000 ]
      - [ -0.18559056131036,  0.00000000000000 ]
    - # atom 6
      - [  0.00000000001610,  0.00000000000000 ]
      - [ -0.30525156666860,  0.00000000000000 ]
      - [ -0.18559056130716,  0.00000000000000 ]
    - # atom 7
      - [  0.00000000000588,  0.00000000000000 ]
      - [ -0.08842826053249,  0.00000000000000 ]
      - [ -0.05376368967731,  0.00000000000000 ]
    - # atom 8
      - [  0.00000000000480,  0.00000000000000 ]
      - [ -0.08842826053242,  0.00000000000000 ]
      - [ -0.05376368968441,  0.00000000000000 ]
    - # atom 9
      - [  0.00000000000575,  0.00000000000000 ]
      - [ -0.08842826053436,  0.00000000000000 ]
      - [ -0.05376368968779,  0.00000000000000 ]
    - # atom 10
      - [  0.00000000000419,  0.00000000000000 ]
      - [ -0.08842826053331,  0.00000000000000 ]
      - [ -0.05376368969324,  0.00000000000000 ]
    - # atom 11
      - [  0.00000000000467,  0.00000000000000 ]
      - [ -0.08842826053428,  0.00000000000000 ]
      - [ -0.05376368969492,  0.00000000000000 ]
    - # atom 12
      - [  0.00000000000665,  0.00000000000000 ]
      - [ -0.08842826053312,  0.00000000000000 ]
      - [ -0.05376368967515,  0.00000000000000 ]
    - # atom 13
      - [  0.00000000002576,  0.00000000000000 ]
      - [ -0.35231050265428,  0.00000000000000 ]
      - [ -0.21420202569705,  0.00000000000000 ]
  - # 5
    frequency:     0.1057177684
    eigenvector:
    - # atom 1
      - [ -0.00000000002248,  0.00000000000000 ]
      - [  0.00000000000619,  0.00000000000000 ]
      - [ -0.22468476871639,  0.00000000000000 ]
    - # atom 2
      - [ -0.00000000004328,  0.00000000000000 ]
      - [  0.00000000000764,  0.00000000000000 ]
      - [  0.09559481703863,  0.00000000000000 ]
    - # atom 3
      - [ -0.00000000001338,  0.00000000000000 ]
      - [ -0.00000000001264,  0.00000000000000 ]
      - [ -0.21037302542193,  0.00000000000000 ]
    - # atom 4
      - [ -0.00000000002508,  0.00000000000000 ]
      - [ -0.00000000002994,  0.00000000000000 ]
      - [  0.12382521232525,  0.00000000000000 ]
    - # atom 5
      - [ -0.00000000004582,  0.00000000000000 ]
      - [ -0.00000000002828,  0.00000000000000 ]
      - [  0.44141793611146,  0.00000000000000 ]
    - # atom 6
      - [ -0.00000000005506,  0.00000000000000 ]
      - [ -0.00000000000955,  0.00000000000000 ]
      - [  0.42999302255435,  0.00000000000000 ]
    - # atom 7
      - [ -0.00000000000384,  0.00000000000000 ]
      - [  0.00000000000570,  0.00000000000000 ]
      - [ -0.14082564139986,  0.00000000000000 ]
    - # atom 8
      - [ -0.00000000001455,  0.00000000000000 ]
      - [  0.00000000000647,  0.00000000000000 ]
      - [  0.02386792013819,  0.00000000000000 ]
    - # atom 9
      - [ -0.00000000000513,  0.00000000000000 ]
      - [ -0.00000000001288,  0.00000000000000 ]
      - [  0.03750972095009,  0.00000000000000 ]
    - # atom 10
      - [ -0.00000000002065,  0.00000000000000 ]
      - [ -0.00000000000243,  0.00000000000000 ]
      - [  0.19669148775311,  0.00000000000000 ]
    - # atom 11
      - [ -0.00000000001590,  0.00000000000000 ]
      - [ -0.00000000001211,  0.00000000000000 ]
      - [  0.20309400467404,  0.00000000000000 ]
    - # atom 12
      - [  0.00000000000384,  0.00000000000000 ]
      - [ -0.00000000000056,  0.00000000000000 ]
      - [ -0.21111236148521,  0.00000000000000 ]
    - # atom 13
      - [  0.00000000000806,  0.00000000000000 ]
      - [ -0.00000000001733,  0.00000000000000 ]
      - [ -0.59559502646448,  0.00000000000000 ]
  - # 6
    frequency:     0.1320826167
    eigenvector:
    - # atom 1
      - [ -0.06321451522883,  0.00000000000000 ]
      - [ -0.24561393466485,  0.00000000000000 ]
      - [ -0.00000000000653,  0.00000000000000 ]
    - # atom 2
      - [  0.22336803812538,  0.00000000000000 ]
      - [ -0.26557236662798,  0.00000000000000 ]
      - [  0.00000000001628,  0.00000000000000 ]
    - # atom 3
      - [ -0.18864161256063,  0.00000000000000 ]
      - [  0.01378785907783,  0.00000000000000 ]
      - [ -0.00000000000390,  0.00000000000000 ]
    - # atom 4
      - [ -0.02743970610199,  0.00000000000000 ]
      - [  0.25226675928325,  0.00000000000000 ]
      - [  0.00000000002147,  0.00000000000000 ]
    - # atom 5
      - [  0.25850385303105,  0.00000000000000 ]
      - [  0.22941471759000,  0.00000000000000 ]
      - [  0.00000000004406,  0.00000000000000 ]
    - # atom 6
      - [  0.38581938228362,  0.00000000000000 ]
      - [ -0.02870838274742,  0.00000000000000 ]
      - [  0.00000000004167,  0.00000000000000 ]
    - # atom 7
      - [ -0.05512189114503,  0.00000000000000 ]
      - [ -0.12498342363421,  0.00000000000000 ]
      - [ -0.00000000000765,  0.00000000000000 ]
    - # atom 8
      - [  0.09250677745939,  0.00000000000000 ]
      - [ -0.13567502764123,  0.00000000000000 ]
      - [  0.00000000000408,  0.00000000000000 ]
    - # atom 9
      - [ -0.03731203448464,  0.00000000000000 ]
      - [  0.13101519240197,  0.00000000000000 ]
      - [  0.00000000000669,  0.00000000000000 ]
    - # atom 10
      - [  0.17647290850081,  0.00000000000000 ]
      - [ -0.01297015491616,  0.00000000000000 ]
      - [  0.00000000001720,  0.00000000000000 ]
    - # atom 11
      - [  0.11103933280614,  0.00000000000000 ]
      - [  0.12049884863077,  0.00000000000000 ]
      - [  0.00000000001848,  0.00000000000000 ]
    - # atom 12
      - [ -0.16099180266328,  0.00000000000000 ]
      - [ -0.03869453915251,  0.00000000000000 ]
      - [ -0.00000000001214,  0.00000000000000 ]
    - # atom 13
      - [ -0.54157640151605,  0.00000000000000 ]
      - [  0.05375414657481,  0.00000000000000 ]
      - [ -0.00000000002951,  0.00000000000000 ]
  - # 7
    frequency:     6.5591568020
    eigenvector:
    - # atom 1
      - [ -0.00000000000000,  0.00000000000000 ]
      - [ -0.00000000000000,  0.00000000000000 ]
      - [ -0.41901460196044,  0.00000000000000 ]
    - # atom 2
      - [ -0.00000000000001,  0.00000000000000 ]
      - [ -0.00000000000000,  0.00000000000000 ]
      - [ -0.00126196151922,  0.00000000000000 ]
    - # atom 3
      - [ -0.00000000000000,  0.00000000000000 ]
      - [ -0.00000000000000,  0.00000000000000 ]
      - [ -0.22133630299640,  0.00000000000000 ]
    - # atom 4
      - [ -0.00000000000000,  0.00000000000000 ]
      - [ -0.00000000000000,  0.00000000000000 ]
      - [ -0.41369557944164,  0.00000000000000 ]
    - # atom 5
      - [ -0.00000000000001,  0.00000000000000 ]
      - [ -0.00000000000000,  0.00000000000000 ]
      - [ -0.00698072367746,  0.00000000000000 ]
    - # atom 6
      - [ -0.00000000000001,  0.00000000000000 ]
      - [ -0.00000000000000,  0.00000000000000 ]
      - [  0.42234263135232,  0.00000000000000 ]
    - # atom 7
      - [ -0.00000000000000,  0.00000000000000 ]
      - [  0.00000000000000,  0.00000000000000 ]
      - [ -0.17231028782089,  0.00000000000000 ]
    - # atom 8
      - [ -0.00000000000000,  0.00000000000000 ]
      - [  0.00000000000000,  0.00000000000000 ]
      - [  0.02273740415846,  0.00000000000000 ]
    - # atom 9
      - [ -0.00000000000000,  0.00000000000000 ]
      - [ -0.00000000000000,  0.00000000000000 ]
      - [ -0.15831120016886,  0.00000000000000 ]
    - # atom 10
      - [ -0.00000000000000,  0.00000000000000 ]
      - [ -0.00000000000000,  0.00000000000000 ]
      - [  0.27025137048856,  0.00000000000000 ]
    - # atom 11
      - [ -0.00000000000000,  0.00000000000000 ]
      - [ -0.00000000000000,  0.00000000000000 ]
      - [  0.02193158321743,  0.00000000000000 ]
    - # atom 12
      - [  0.00000000000000,  0.00000000000000 ]
      - [  0.00000000000000,  0.00000000000000 ]
      - [  0.19118662901796,  0.00000000000000 ]
    - # atom 13
      - [  0.00000000000000,  0.00000000000000 ]
      - [ -0.00000000000000,  0.00000000000000 ]
      - [  0.51042136017062,  0.00000000000000 ]
  - # 8
    frequency:    11.0831370682
    eigenvector:
    - # atom 1
      - [  0.00000000000000,  0.00000000000000 ]
      - [ -0.00000000000000,  0.00000000000000 ]
      - [ -0.02433275577232,  0.00000000000000 ]
    - # atom 2
      - [  0.00000000000000,  0.00000000000000 ]
      - [ -0.00000000000000,  0.00000000000000 ]
      - [ -0.00038417429414,  0.00000000000000 ]
    - # atom 3
      - [ -0.00000000000000,  0.00000000000000 ]
      - [ -0.00000000000000,  0.00000000000000 ]
      - [  0.01234329192946,  0.00000000000000 ]
    - # atom 4
      - [ -0.00000000000000,  0.00000000000000 ]
      - [ -0.00000000000000,  0.00000000000000 ]
      - [  0.06977799569846,  0.00000000000000 ]
    - # atom 5
      - [  0.00000000000000,  0.00000000000000 ]
      - [ -0.00000000000000,  0.00000000000000 ]
      - [  0.02219272551716,  0.00000000000000 ]
    - # atom 6
      - [  0.00000000000000,  0.00000000000000 ]
      - [ -0.00000000000000,  0.00000000000000 ]
      - [ -0.02227087046124,  0.00000000000000 ]
    - # atom 7
      - [ -0.00000000000000,  0.00000000000000 ]
      - [ -0.00000000000000,  0.00000000000000 ]
      - [ -0.06552715095863,  0.00000000000000 ]
    - # atom 8
      - [  0.00000000000000,  0.00000000000000 ]
      - [ -0.00000000000000,  0.00000000000000 ]
      - [ -0.01263123791895,  0.00000000000000 ]
    - # atom 9
      - [ -0.00000000000000,  0.00000000000000 ]
      - [ -0.00000000000000,  0.00000000000000 ]
      - [  0.06862321883664,  0.00000000000000 ]
    - # atom 10
      - [ -0.00000000000000,  0.00000000000000 ]
      - [ -0.00000000000000,  0.00000000000000 ]
      - [ -0.01102729653772,  0.00000000000000 ]
    - # atom 11
      - [  0.00000000000000,  0.00000000000000 ]
      - [ -0.00000000000000,  0.00000000000000 ]
      - [  0.03088484448301,  0.00000000000000 ]
    - # atom 12
      - [ -0.00000000000000,  0.00000000000000 ]
      - [ -0.00000000000000,  0.00000000000000 ]
      - [  0.94811654364981,  0.00000000000000 ]
    - # atom 13
      - [ -0.00000000000000,  0.00000000000000 ]
      - [ -0.00000000000000,  0.00000000000000 ]
      - [ -0.29023262747759,  0.00000000000000 ]
  - # 9
    frequency:    11.7677841954
    eigenvector:
    - # atom 1
      - [  0.34150624836749,  0.00000000000000 ]
      - [  0.06245366171166,  0.00000000000000 ]
      - [ -0.00000000000000,  0.00000000000000 ]
    - # atom 2
      - [ -0.03487388486931,  0.00000000000000 ]
      - [  0.15914571712953,  0.00000000000000 ]
      - [  0.00000000000000,  0.00000000000000 ]
    - # atom 3
      - [  0.34020733407376,  0.00000000000000 ]
      - [ -0.01162668572879,  0.00000000000000 ]
      - [ -0.00000000000000,  0.00000000000000 ]
    - # atom 4
      - [  0.31303425650424,  0.00000000000000 ]
      - [ -0.11195500360530,  0.00000000000000 ]
      - [ -0.00000000000000,  0.00000000000000 ]
    - # atom 5
      - [ -0.06316986050467,  0.00000000000000 ]
      - [ -0.15056248655023,  0.00000000000000 ]
      - [ -0.00000000000000,  0.00000000000000 ]
    - # atom 6
      - [ -0.14555387509841,  0.00000000000000 ]
      - [  0.00684587062304,  0.00000000000000 ]
      - [  0.00000000000000,  0.00000000000000 ]
    - # atom 7
      - [  0.14134074983353,  0.00000000000000 ]
      - [  0.08382450937243,  0.00000000000000 ]
      - [ -0.00000000000000,  0.00000000000000 ]
    - # atom 8
      - [ -0.04028170753821,  0.00000000000000 ]
      - [  0.11136730794712,  0.00000000000000 ]
      - [  0.00000000000000,  0.00000000000000 ]
    - # atom 9
      - [  0.13277831810564,  0.00000000000000 ]
      - [ -0.11542101061325,  0.00000000000000 ]
      - [ -0.00000000000000,  0.00000000000000 ]
    - # atom 10
      - [ -0.07903256893592,  0.00000000000000 ]
      - [  0.00475307283680,  0.00000000000000 ]
      - [  0.00000000000000,  0.00000000000000 ]
    - # atom 11
      - [ -0.05606820543609,  0.00000000000000 ]
      - [ -0.10105326950818,  0.00000000000000 ]
      - [ -0.00000000000000,  0.00000000000000 ]
    - # atom 12
      - [ -0.25903239061206,  0.00000000000000 ]
      - [ -0.19615338801133,  0.00000000000000 ]
      - [  0.00000000000000,  0.00000000000000 ]
    - # atom 13
      - [ -0.61058384635715,  0.00000000000000 ]
      - [  0.09297717990219,  0.00000000000000 ]
      - [  0.00000000000000,  0.00000000000000 ]
  - # 10
    frequency:    12.1707296505
    eigenvector:
    - # atom 1
      - [  0.00000000000000,  0.00000000000000 ]
      - [ -0.00000000000000,  0.00000000000000 ]
      - [  0.42196586173632,  0.00000000000000 ]
    - # atom 2
      - [ -0.00000000000000,  0.00000000000000 ]
      - [  0.00000000000000,  0.00000000000000 ]
      - [ -0.42075562373229,  0.00000000000000 ]
    - # atom 3
      - [  0.00000000000000,  0.00000000000000 ]
      - [ -0.00000000000000,  0.00000000000000 ]
      - [ -0.01021402076545,  0.00000000000000 ]
    - # atom 4
      - [  0.00000000000000,  0.00000000000000 ]
      - [  0.00000000000001,  0.00000000000000 ]
      - [ -0.42724345168832,  0.00000000000000 ]
    - # atom 5
      - [  0.00000000000000,  0.00000000000000 ]
      - [  0.00000000000000,  0.00000000000000 ]
      - [  0.42655443442267,  0.00000000000000 ]
    - # atom 6
      - [ -0.00000000000000,  0.00000000000000 ]
      - [  0.00000000000000,  0.00000000000000 ]
      - [  0.00128745065831,  0.00000000000000 ]
    - # atom 7
      - [  0.00000000000000,  0.00000000000000 ]
      - [  0.00000000000000,  0.00000000000000 ]
      - [  0.25880812707765,  0.00000000000000 ]
    - # atom 8
      - [ -0.00000000000000,  0.00000000000000 ]
      - [ -0.00000000000000,  0.00000000000000 ]
      - [ -0.27055434789196,  0.00000000000000 ]
    - # atom 9
      - [  0.00000000000000,  0.00000000000000 ]
      - [  0.00000000000000,  0.00000000000000 ]
      - [ -0.24914333548924,  0.00000000000000 ]
    - # atom 10
      - [  0.00000000000000,  0.00000000000000 ]
      - [  0.00000000000000,  0.00000000000000 ]
      - [ -0.00253394684507,  0.00000000000000 ]
    - # atom 11
      - [  0.00000000000000,  0.00000000000000 ]
      - [  0.00000000000000,  0.00000000000000 ]
      - [  0.27418276194364,  0.00000000000000 ]
    - # atom 12
      - [ -0.00000000000000,  0.00000000000000 ]
      - [ -0.00000000000000,  0.00000000000000 ]
      - [  0.05296845742704,  0.00000000000000 ]
    - # atom 13
      - [ -0.00000000000000,  0.00000000000000 ]
      - [ -0.00000000000000,  0.00000000000000 ]
      - [ -0.00871272643579,  0.00000000000000 ]
  - # 11
    frequency:    14.8780041346
    eigenvector:
    - # atom 1
      - [  0.00000000000000,  0.00000000000000 ]
      - [ -0.00000000000000,  0.00000000000000 ]
      - [ -0.02992345901173,  0.00000000000000 ]
    - # atom 2
      - [  0.00000000000000,  0.00000000000000 ]
      - [ -0.00000000000000,  0.00000000000000 ]
      - [  0.25836814555841,  0.00000000000000 ]
    - # atom 3
      - [ -0.00000000000000,  0.00000000000000 ]
      - [ -0.00000000000000,  0.00000000000000 ]
      - [ -0.60429325243816,  0.00000000000000 ]
    - # atom 4
      - [ -0.00000000000000,  0.00000000000000 ]
      - [ -0.00000000000000,  0.00000000000000 ]
      - [ -0.01571710753207,  0.00000000000000 ]
    - # atom 5
      - [  0.00000000000000,  0.00000000000000 ]
      - [ -0.00000000000000,  0.00000000000000 ]
      - [  0.24722512878461,  0.00000000000000 ]
    - # atom 6
      - [  0.00000000000000,  0.00000000000000 ]
      - [ -0.00000000000000,  0.00000000000000 ]
      - [ -0.37960594266998,  0.00000000000000 ]
    - # atom 7
      - [ -0.00000000000000,  0.00000000000000 ]
      - [ -0.00000000000000,  0.00000000000000 ]
      - [  0.24617676968507,  0.00000000000000 ]
    - # atom 8
      - [  0.00000000000000,  0.00000000000000 ]
      - [  0.00000000000000,  0.00000000000000 ]
      - [  0.31058352510501,  0.00000000000000 ]
    - # atom 9
      - [ -0.00000000000000,  0.00000000000000 ]
      - [ -0.00000000000000,  0.00000000000000 ]
      - [  0.24436344749262,  0.00000000000000 ]
    - # atom 10
      - [ -0.00000000000000,  0.00000000000000 ]
      - [ -0.00000000000000,  0.00000000000000 ]
      - [ -0.11167866376041,  0.00000000000000 ]
    - # atom 11
      - [  0.00000000000000,  0.00000000000000 ]
      - [ -0.00000000000000,  0.00000000000000 ]
      - [  0.30526630956462,  0.00000000000000 ]
    - # atom 12
      - [ -0.00000000000000,  0.00000000000000 ]
      - [ -0.00000000000000,  0.00000000000000 ]
      - [  0.04496194904717,  0.00000000000000 ]
    - # atom 13
      - [ -0.00000000000000,  0.00000000000000 ]
      - [ -0.00000000000000,  0.00000000000000 ]
      - [  0.19300866952224,  0.00000000000000 ]
  - # 12
    frequency:    15.5423545320
    eigenvector:
    - # atom 1
      - [ -0.20430518581076,  0.00000000000000 ]
      - [  0.09768971548733,  0.00000000000000 ]
      - [ -0.00000000000000,  0.00000000000000 ]
    - # atom 2
      - [ -0.18666354848394,  0.00000000000000 ]
      - [  0.18203459786738,  0.00000000000000 ]
      - [  0.00000000000000,  0.00000000000000 ]
    - # atom 3
      - [ -0.02336339426015,  0.00000000000000 ]
      - [ -0.35378364036972,  0.00000000000000 ]
      - [ -0.00000000000000,  0.00000000000000 ]
    - # atom 4
      - [  0.22926873307046,  0.00000000000000 ]
      - [  0.06500906850479,  0.00000000000000 ]
      - [  0.00000000000001,  0.00000000000000 ]
    - # atom 5
      - [  0.21095880358913,  0.00000000000000 ]
      - [  0.15218905292256,  0.00000000000000 ]
      - [ -0.00000000000000,  0.00000000000000 ]
    - # atom 6
      - [  0.03128713985952,  0.00000000000000 ]
      - [  0.47189484062817,  0.00000000000000 ]
      - [  0.00000000000000,  0.00000000000000 ]
    - # atom 7
      - [  0.00332242120213,  0.00000000000000 ]
      - [  0.11814648561010,  0.00000000000000 ]
      - [  0.00000000000000,  0.00000000000000 ]
    - # atom 8
      - [ -0.01642747027772,  0.00000000000000 ]
      - [ -0.02434247672451,  0.00000000000000 ]
      - [  0.00000000000000,  0.00000000000000 ]
    - # atom 9
      - [  0.01312242762927,  0.00000000000000 ]
      - [  0.12108689237160,  0.00000000000000 ]
      - [  0.00000000000000,  0.00000000000000 ]
    - # atom 10
      - [  0.00859785624574,  0.00000000000000 ]
      - [  0.13682409906436,  0.00000000000000 ]
      - [ -0.00000000000000,  0.00000000000000 ]
    - # atom 11
      - [  0.01119848967132,  0.00000000000000 ]
      - [ -0.02882725882698,  0.00000000000000 ]
      - [ -0.00000000000001,  0.00000000000000 ]
    - # atom 12
      - [ -0.00652969870579,  0.00000000000000 ]
      - [ -0.13601923181099,  0.00000000000000 ]
      - [  0.00000000000000,  0.00000000000000 ]
    - # atom 13
      - [ -0.05287876887900,  0.00000000000000 ]
      - [ -0.57978526433708,  0.00000000000000 ]
      - [  0.00000000000000,  0.00000000000000 ]
  - # 13
    frequency:    18.3025092671
    eigenvector:
    - # atom 1
      - [  0.21289553582764,  0.00000000000000 ]
      - [ -0.35318638873076,  0.00000000000000 ]
      - [ -0.00000000000000,  0.00000000000000 ]
    - # atom 2
      - [ -0.36325862907681,  0.00000000000000 ]
      - [ -0.34916462986523,  0.00000000000000 ]
      - [  0.00000000000000,  0.00000000000000 ]
    - # atom 3
      - [  0.16172607866679,  0.00000000000000 ]
      - [ -0.01288191190745,  0.00000000000000 ]
      - [ -0.00000000000000,  0.00000000000000 ]
    - # atom 4
      - [  0.26512642154613,  0.00000000000000 ]
      - [  0.31607623710898,  0.00000000000000 ]
      - [  0.00000000000001,  0.00000000000000 ]
    - # atom 5
      - [ -0.30489615928060,  0.00000000000000 ]
      - [  0.39388103280468,  0.00000000000000 ]
      - [ -0.00000000000000,  0.00000000000000 ]
    - # atom 6
      - [ -0.17336568127535,  0.00000000000000 ]
      - [  0.01249592799315,  0.00000000000000 ]
      - [ -0.00000000000000,  0.00000000000000 ]
    - # atom 7
      - [  0.09560519429287,  0.00000000000000 ]
      - [ -0.05008336218868,  0.00000000000000 ]
      - [  0.00000000000000,  0.00000000000000 ]
    - # atom 8
      - [ -0.12838279328361,  0.00000000000000 ]
      - [ -0.05223221847328,  0.00000000000000 ]
      - [  0.00000000000000,  0.00000000000000 ]
    - # atom 9
      - [  0.10197904251194,  0.00000000000000 ]
      - [  0.03902827391305,  0.00000000000000 ]
      - [  0.00000000000000,  0.00000000000000 ]
    - # atom 10
      - [  0.12863350718150,  0.00000000000000 ]
      - [ -0.00925842549136,  0.00000000000000 ]
      - [ -0.00000000000000,  0.00000000000000 ]
    - # atom 11
      - [ -0.11934867122380,  0.00000000000000 ]
      - [  0.06759396864704,  0.00000000000000 ]
      - [ -0.00000000000000,  0.00000000000000 ]