# epsilon and Z* of atoms 1 4
   2.51279634  -0.00000000   0.00000000   0.00000000   2.51279634   0.00000000   0.00000000   0.00000000   2.54599462
   2.98568898  -0.00000000   0.00000000   0.00000000   3.62192178  -0.31316609   0.00000000   0.27010940   3.42848655
  -1.31504472  -0.49134868  -0.30661220  -0.43522572  -1.99007923  -0.67591250  -0.24111596  -0.71806081  -1.71487920
