12   
24   

1    
  0.0078978937457307   0.0000000000000000   0.0061337814096321
  -0.5259768700    0.0155824600   -0.0763254600
   0.0902528200   -0.0190237400    0.0359410700
   0.2140002500    0.0922653400    0.0351185900
   0.0420399800   -0.0151621300   -0.0046504800
   0.0111311500    0.0193642100    0.0040878800
  -0.0219649300   -0.0212621900   -0.0046203500
   0.1895146600   -0.0860497000    0.0217284600
  -0.0027205200   -0.0014535300   -0.0018233700
  -0.0027940600    0.0206569500   -0.0016898800
   0.0033159000   -0.0032427400   -0.0042252100
   0.0028772000   -0.0020639300   -0.0041893000
   0.0003244300    0.0003890000    0.0006480500

1    
 -0.0078978937457307   0.0000000000000000  -0.0061337814096321
   0.5244528100   -0.0288067000    0.0756404000
  -0.0892073900    0.0213650200   -0.0358579200
  -0.2058919300   -0.0869813500   -0.0366261600
  -0.0421955900    0.0152911800    0.0043786900
  -0.0108965500   -0.0195900700   -0.0040833200
   0.0211352200    0.0217934600    0.0044052100
  -0.1972863700    0.0921263900   -0.0193083800
   0.0027785600    0.0029055600    0.0017881000
   0.0012803800   -0.0216598900    0.0019201900
  -0.0032484900    0.0018095200    0.0041712500
  -0.0015823700    0.0027023000    0.0042060700
   0.0006617200   -0.0009554200   -0.0006341300

1    
  0.0000000000000000   0.0100000000000000   0.0000000000000000
   0.0280672800   -0.6232493600    0.0000000000
   0.0284551400    0.3044977300    0.0000000000
   0.0620129400    0.1631411400    0.0000000000
   0.0173912000   -0.0531096100    0.0000000000
   0.0246056300    0.0412987800    0.0000000000
  -0.0643713500    0.0272956100    0.0000000000
  -0.1153748700    0.1189245500    0.0000000000
   0.0264709800    0.0117846700    0.0000000000
  -0.0030449000    0.0093491100    0.0000000000
  -0.0022274100   -0.0013806700    0.0000000000
  -0.0033204000    0.0010023500    0.0000000000
   0.0013357600    0.0004457100    0.0000000000

1    
  0.0000000000000000  -0.0100000000000000   0.0000000000000000
  -0.0281448000    0.6439028300    0.0000000000
  -0.0278873500   -0.3258865900    0.0000000000
  -0.0573810100   -0.1624940500    0.0000000000
  -0.0184157300    0.0536102900    0.0000000000
  -0.0247185200   -0.0418601700    0.0000000000
   0.0645164900   -0.0271990700    0.0000000000
   0.1101489900   -0.1180363800    0.0000000000
  -0.0260978500   -0.0099872800    0.0000000000
   0.0014601700   -0.0106123900    0.0000000000
   0.0023119000   -0.0000613100    0.0000000000
   0.0045707600   -0.0003465100    0.0000000000
  -0.0003630500   -0.0010293600    0.0000000000

2    
  0.0078978937457307   0.0000000000000000   0.0061337814096321
   0.0896948200    0.0209072800    0.0359296800
  -0.5257591200   -0.0154335100   -0.0763279700
  -0.0204190400    0.0219948400   -0.0046213500
   0.0101770400   -0.0191090100    0.0040882900
   0.0424908600    0.0140331000   -0.0046506900
   0.2114952900   -0.0931077200    0.0351260300
  -0.0029054200   -0.0205504100   -0.0016913700
   0.0033386700    0.0032036500   -0.0042251000
   0.1915582100    0.0847246300    0.0217361500
  -0.0029273200    0.0016141100   -0.0018217100
   0.0004310800   -0.0003479500    0.0006476500
   0.0028249300    0.0020710000   -0.0041896100

2    
 -0.0078978937457307   0.0000000000000000  -0.0061337814096321
  -0.0897796400   -0.0235777400   -0.0358691200
   0.5257679300    0.0283206100    0.0756376000
   0.0207952800   -0.0221310600    0.0044044200
  -0.0108346200    0.0192747600   -0.0040833200
  -0.0417286100   -0.0142529200    0.0043780100
  -0.2048094000    0.0881549600   -0.0366221400
   0.0016617400    0.0215063400    0.0019189600
  -0.0033359800   -0.0017452400    0.0041717000
  -0.1998188700   -0.0908262800   -0.0192977600
   0.0030480600   -0.0030484500    0.0017898100
   0.0008054300    0.0009771400   -0.0006342900
  -0.0017713200   -0.0026521300    0.0042061400

2    
  0.0000000000000000   0.0100000000000000   0.0000000000000000
  -0.0256540100    0.3257240300    0.0000000000
  -0.0276130700   -0.6433428200    0.0000000000
   0.0658021600    0.0261818300    0.0000000000
  -0.0248044300    0.0424524300    0.0000000000
  -0.0193364500   -0.0536388500    0.0000000000
  -0.0591535700    0.1648429200    0.0000000000
   0.0017630900    0.0109092800    0.0000000000
   0.0022158000    0.0000015700    0.0000000000
   0.1084655900    0.1152058000    0.0000000000
  -0.0258756200    0.0102938100    0.0000000000
  -0.0002277100    0.0010809900    0.0000000000
   0.0044182300    0.0002890100    0.0000000000

2    
  0.0000000000000000  -0.0100000000000000   0.0000000000000000
   0.0254845900   -0.3046605100    0.0000000000
   0.0278073100    0.6223710700    0.0000000000
  -0.0644624500   -0.0259309800    0.0000000000
   0.0237859700   -0.0419692100    0.0000000000
   0.0192186200    0.0530798600    0.0000000000
   0.0628213600   -0.1652841800    0.0000000000
  -0.0030741700   -0.0096817900    0.0000000000
  -0.0021974100    0.0014592300    0.0000000000
  -0.1137290400   -0.1159853700    0.0000000000
   0.0263139700   -0.0120795300    0.0000000000
   0.0014467700   -0.0004367400    0.0000000000
  -0.0034155200   -0.0008818500    0.0000000000

3    
  0.0078978937457307   0.0000000000000000   0.0061337814096321
   0.2060371800    0.0440862200    0.0366631100
  -0.0200585600    0.0515945100   -0.0044849100
  -0.4869102100    0.0062525000   -0.0759927900
   0.2115717900   -0.0507700100    0.0350910900
  -0.0214812400   -0.0511493300   -0.0045409000
   0.0439378000    0.0000984700    0.0040854900
   0.0129772600    0.0112808600   -0.0016757900
   0.0414030700    0.0009119300    0.0205477500
  -0.0021915800   -0.0013751500   -0.0042330000
   0.0010055800   -0.0007084200    0.0006410200
   0.0146321400   -0.0109278500   -0.0019383500
  -0.0009232300    0.0007062700   -0.0041627300

3    
 -0.0078978937457307   0.0000000000000000  -0.0061337814096321
  -0.2138770600   -0.0502680400   -0.0350834700
   0.0211271300   -0.0512980400    0.0045426200
   0.4877465700    0.0069562300    0.0759969000
  -0.2047096600    0.0456474500   -0.0366590000
   0.0216339100    0.0506273000    0.0044867800
  -0.0445592300    0.0006464200   -0.0040855900
  -0.0146137300   -0.0105552700    0.0019373600
  -0.0414428800   -0.0017204000   -0.0205658000
   0.0006860500    0.0004905800    0.0041630800
  -0.0009469400   -0.0006910000   -0.0006412200
  -0.0129738800    0.0114735100    0.0016747700
   0.0019297100   -0.0013087400    0.0042335500

3    
  0.0000000000000000   0.0100000000000000   0.0000000000000000
   0.1114550800    0.1622888900    0.0000000000
   0.0283583000    0.0260793800    0.0000000000
  -0.0003354000   -0.6909179200    0.0000000000
  -0.1130030500    0.1649968500    0.0000000000
  -0.0270637900    0.0268451900    0.0000000000
  -0.0006716400   -0.0002692400    0.0000000000
  -0.0157999800   -0.0096828800    0.0000000000
   0.0017472100    0.3219924300    0.0000000000
  -0.0010214500    0.0048659700    0.0000000000
   0.0000169200   -0.0014015200    0.0000000000
   0.0154536700   -0.0097833500    0.0000000000
   0.0008641300    0.0049862100    0.0000000000

3    
  0.0000000000000000  -0.0100000000000000   0.0000000000000000
  -0.1154176700   -0.1633388200    0.0000000000
  -0.0275471200   -0.0260391500    0.0000000000
   0.0005202600    0.6722119700    0.0000000000
   0.1164509500   -0.1651201800    0.0000000000
   0.0274661400   -0.0276563600    0.0000000000
   0.0000556400    0.0007165300    0.0000000000
   0.0146322300    0.0104466800    0.0000000000
  -0.0015939900   -0.3002214300    0.0000000000
  -0.0005119400   -0.0057773600    0.0000000000
   0.0000420900    0.0000230000    0.0000000000
  -0.0142679500    0.0103729400    0.0000000000
   0.0001713500   -0.0056178300    0.0000000000

7    
  0.0078978937457307   0.0000000000000000   0.0061337814096321
   0.1964371700   -0.0919015500    0.0195590500
  -0.0017953000    0.0022098400   -0.0018098500
   0.0141759500   -0.0122129100   -0.0018808200
   0.0018915900    0.0032170900   -0.0042249300
  -0.0001392900    0.0005126200    0.0006452100
  -0.0017306700    0.0006363700   -0.0042265300
  -0.2087315500    0.0985137300   -0.0131434100
  -0.0007004700    0.0009113400    0.0023087400
  -0.0013161100   -0.0007030800    0.0023089000
   0.0000132800   -0.0005208000   -0.0001332800
   0.0013868600   -0.0003035600   -0.0001279200
   0.0005085500   -0.0003591000    0.0007248400

7    
 -0.0078978937457307   0.0000000000000000  -0.0061337814096321
  -0.1903898700    0.0862777200   -0.0214872500
   0.0027560900   -0.0016267600    0.0018003700
  -0.0134082900    0.0118502400    0.0017310600
  -0.0026906800   -0.0029546100    0.0041718800
   0.0002184200   -0.0008410600   -0.0006374300
   0.0011141400    0.0000652100    0.0041698500
   0.2015055200   -0.0929615000    0.0152472700
   0.0006829600    0.0005090700   -0.0022703000
  -0.0001578300   -0.0001724100   -0.0022696800
   0.0000338200   -0.0008725500    0.0001273000
  -0.0001457300    0.0009456400    0.0001331000
   0.0004814600   -0.0002190000   -0.0007161700

7    
  0.0000000000000000   0.0100000000000000   0.0000000000000000
  -0.1109446400    0.1180781100    0.0000000000
  -0.0258901500    0.0103864800    0.0000000000
   0.0140390100   -0.0101305000    0.0000000000
   0.0025686500    0.0007074900    0.0000000000
   0.0008971700    0.0005527900    0.0000000000
   0.0009874500    0.0055938600    0.0000000000
   0.1186668600   -0.1233329600    0.0000000000
  -0.0003960600   -0.0000718000    0.0000000000
  -0.0004126700   -0.0013510600    0.0000000000
  -0.0013093600   -0.0000538800    0.0000000000
   0.0013876600   -0.0000075700    0.0000000000
   0.0004060800   -0.0003709500    0.0000000000

7    
  0.0000000000000000  -0.0100000000000000   0.0000000000000000
   0.1146013800   -0.1189107000    0.0000000000
   0.0273867900   -0.0101894700    0.0000000000
  -0.0136127500    0.0099701300    0.0000000000
  -0.0034333900   -0.0004787500    0.0000000000
  -0.0008280600   -0.0009077400    0.0000000000
  -0.0015595400   -0.0049828800    0.0000000000
  -0.1237102300    0.1244306000    0.0000000000
   0.0004357900    0.0014886000    0.0000000000
  -0.0010820500    0.0004902600    0.0000000000
   0.0013737600   -0.0013591600    0.0000000000
  -0.0001581500    0.0006588900    0.0000000000
   0.0005864500   -0.0002097700    0.0000000000

8    
  0.0078978937457307   0.0000000000000000   0.0061337814096321
  -0.0027612500    0.0202638300   -0.0017350700
   0.0039018400    0.0019737800   -0.0041996600
   0.0417321500    0.0024627500    0.0205638400
  -0.0033551800   -0.0205519300   -0.0018746700
   0.0033271600   -0.0019745000   -0.0041962900
   0.0006654700    0.0003108600    0.0006409100
  -0.0013082800    0.0000723400    0.0022893200
  -0.0418032300   -0.0017796400   -0.0142371400
  -0.0007490100    0.0006330900   -0.0001357100
  -0.0000775300   -0.0007012800    0.0007203700
  -0.0000632000    0.0006426400    0.0022884900
   0.0004910600   -0.0013519200   -0.0001243900

8    
 -0.0078978937457307   0.0000000000000000  -0.0061337814096321
   0.0027587500   -0.0212644500    0.0018755100
  -0.0027531100   -0.0014970300    0.0041964500
  -0.0411197300   -0.0001963200   -0.0205485900
   0.0026023300    0.0206482600    0.0017355100
  -0.0032554500    0.0016249700    0.0042000700
  -0.0012847900    0.0003543000   -0.0006412800
   0.0000830500    0.0007245500   -0.0022891200
   0.0417623500    0.0010458800    0.0142209700
  -0.0007425400   -0.0014939900    0.0001247500
   0.0001364000   -0.0006960700   -0.0007205100
   0.0013082900   -0.0000220000   -0.0022899100
   0.0005044600    0.0007719000    0.0001361500

8    
  0.0000000000000000   0.0100000000000000   0.0000000000000000
  -0.0026908200    0.0105410500    0.0000000000
   0.0037343000   -0.0004827200    0.0000000000
   0.0018837000    0.3013076900    0.0000000000
   0.0025052600    0.0113824000    0.0000000000
  -0.0031875800   -0.0008268300    0.0000000000
  -0.0003207600   -0.0003707300    0.0000000000
  -0.0003475000   -0.0003751200    0.0000000000
  -0.0017256600   -0.3206784900    0.0000000000
  -0.0009534200    0.0002165300    0.0000000000
   0.0000311000   -0.0006201600    0.0000000000
   0.0003584100   -0.0004650100    0.0000000000
   0.0007129600    0.0003713800    0.0000000000

8    
  0.0000000000000000  -0.0100000000000000   0.0000000000000000
   0.0028125900   -0.0112096200    0.0000000000
  -0.0025566600    0.0009574500    0.0000000000
  -0.0014558200   -0.3208888300    0.0000000000
  -0.0033763800   -0.0109686600    0.0000000000
   0.0032293000    0.0004750600    0.0000000000
  -0.0002975400    0.0010319200    0.0000000000
  -0.0008720700    0.0011929800    0.0000000000
   0.0018653100    0.3410887000    0.0000000000
  -0.0005405700   -0.0010667000    0.0000000000
   0.0000281600   -0.0007784700    0.0000000000
   0.0008804700    0.0011070800    0.0000000000
   0.0002832200   -0.0009409100    0.0000000000

9    
  0.0078978937457307   0.0000000000000000   0.0061337814096321
  -0.0021069900   -0.0022266600   -0.0018105200
   0.1993265300    0.0903941600    0.0195504400
  -0.0011499400   -0.0003428100   -0.0042265100
  -0.0005793500   -0.0005201300    0.0006452700
   0.0022994800   -0.0032936500   -0.0042250800
   0.0135875500    0.0120802000   -0.0018810500
  -0.0011922500    0.0006858200    0.0023088000
  -0.0000092400    0.0005490500   -0.0001331400
  -0.2114258600   -0.0971215600   -0.0131341000
  -0.0006654400   -0.0009112700    0.0023086100
   0.0006415100    0.0003928800    0.0007246000
   0.0012740000    0.0003139700   -0.0001273000

9    
 -0.0078978937457307   0.0000000000000000  -0.0061337814096321
   0.0019946800    0.0013164400    0.0017992800
  -0.1920231300   -0.0851274200   -0.0214937000
   0.0017289000    0.0000229800    0.0041706500
  -0.0002377500    0.0007819700   -0.0006374000
  -0.0021872200    0.0029558100    0.0041716100
  -0.0140191300   -0.0113612200    0.0017310300
  -0.0000141000    0.0001470400   -0.0022699100
  -0.0000106100    0.0008682500    0.0001275800
   0.2037350700    0.0915393000    0.0152545200
   0.0007147000   -0.0004918200   -0.0022702700
   0.0005953000    0.0002458400   -0.0007165800
  -0.0002767000   -0.0008971700    0.0001332000

9    
  0.0000000000000000   0.0100000000000000   0.0000000000000000
   0.0269960400    0.0097236100    0.0000000000
   0.1133291400    0.1157645300    0.0000000000
  -0.0008685000    0.0052221300    0.0000000000
  -0.0012397400    0.0009167100    0.0000000000
  -0.0029828900    0.0005136100    0.0000000000
  -0.0145646800   -0.0098294900    0.0000000000
  -0.0009560900   -0.0005076800    0.0000000000
   0.0013497700    0.0013618300    0.0000000000
  -0.1219572100   -0.1212880000    0.0000000000
   0.0004693300   -0.0014875900    0.0000000000
   0.0007153500    0.0002430900    0.0000000000
  -0.0002905200   -0.0006327500    0.0000000000

9    
  0.0000000000000000  -0.0100000000000000   0.0000000000000000
  -0.0265598600   -0.0102576500    0.0000000000
  -0.1088317400   -0.1154130700    0.0000000000
   0.0014946100   -0.0054599800    0.0000000000
   0.0004034500   -0.0006281700    0.0000000000
   0.0030238100   -0.0008132300    0.0000000000
   0.0138006900    0.0103633600    0.0000000000
  -0.0002669100    0.0013249500    0.0000000000
  -0.0013507100    0.0000707700    0.0000000000
   0.1168543600    0.1202785500    0.0000000000
  -0.0003641500    0.0000920800    0.0000000000
   0.0005226300    0.0003995100    0.0000000000
   0.0012738100    0.0000428800    0.0000000000
