# epsilon and Z* of atoms 1 4
   2.51229662   0.00000000   0.00000000   0.00000000   2.51229662   0.00000000   0.00000000   0.00000000   2.54547789
   2.98594009   0.00000000  -0.00000000   0.00000000   3.62220987  -0.31310225   0.00000000   0.26996802   3.42882331
  -1.31452627  -0.49129538  -0.30663968  -0.43526385  -1.98954871  -0.67591202  -0.24113518  -0.71795081  -1.71441165
