14.400
   1.0270880  -0.0002290   0.0000000  -0.0002290   1.0304800   0.0000000   0.0000000   0.0000000   1.0148660
  -0.0246600   0.0221100   0.0000000  -0.3305900  -0.2621200   0.0000000   0.0000000   0.0000000  -0.1569200
   0.1186000  -0.0884100   0.0000000   0.0211900   0.1517200   0.0000000  -0.0000000  -0.0000000  -0.1292200
   0.0896700   0.0665800   0.0000000   0.0795000   1.4725800   0.0000000  -0.0000000  -0.0000000   0.0564000
   0.0140800  -0.0415200   0.0000000   0.2606300  -0.2897000   0.0000000   0.0000000   0.0000000  -0.1468500
   0.1378500   0.0650200   0.0000000   0.0016400   0.1623800   0.0000000   0.0000000  -0.0000000  -0.1269000
  -0.2046600   0.0192800   0.0000000  -0.0018900  -0.0412600   0.0000000  -0.0000000  -0.0000000  -0.1560100
  -0.0269200   0.0903800   0.0000000   0.0871000  -0.0401400   0.0000000   0.0000000   0.0000000   0.1424000
  -0.0670700  -0.0611100   0.0000000  -0.0653700   0.0351300   0.0000000   0.0000000   0.0000000   0.1271100
  -0.0251000  -0.0564300   0.0000000  -0.0557600   0.0397800   0.0000000  -0.0000000  -0.0000000   0.1433200
   0.0579000  -0.0115000   0.0000000  -0.0101700  -0.0959700   0.0000000   0.0000000   0.0000000   0.1405400
  -0.0454400   0.0762000   0.0000000   0.0764300   0.0155400   0.0000000   0.0000000  -0.0000000   0.1260500
   0.1114800  -0.0228000   0.0000000   0.0080000   0.3573200   0.0000000  -0.0000000   0.0000000   0.3046800
  -0.1338800  -0.0578100   0.0000000  -0.0707200  -1.5035500   0.0000000  -0.0000000   0.0000000  -0.3228700
