# epsilon and Z* of atoms 1 4
   2.51230986  -0.00000000   0.00000000   0.00000000   2.51230986   0.00000000   0.00000000   0.00000000   2.54549158
   2.98578721  -0.00000000   0.00000000  -0.00000000   3.62204247  -0.31316577   0.00000000   0.27013342   3.42858477
  -1.31467106  -0.49129845  -0.30661950  -0.43519176  -1.98968398  -0.67586072  -0.24113660  -0.71799868  -1.71449366
