14.400
   1.0278390  -0.0006950   0.0000120  -0.0006950   1.0340720  -0.0001100   0.0000120  -0.0001100   1.0159780
   0.0597500   0.0929300  -0.0108100  -0.3128100  -0.3725400   0.0156200  -0.0127400  -0.0040100  -0.1631100
   0.1532800  -0.1079600   0.0000300  -0.0109200   0.1967200   0.0017000   0.0019500  -0.0003000  -0.1259500
  -0.2343700  -0.0133900   0.0002900  -0.0134900  -0.1121200  -0.0025600   0.0002800  -0.0026300  -0.1713000
   0.1304500   0.0931300  -0.0004100  -0.0037500   0.2196600   0.0016800  -0.0018300  -0.0006800  -0.1259500
  -0.0070300  -0.0120600   0.0071400   0.3936800  -0.3060800   0.0177000   0.0133000  -0.0012100  -0.1631200
  -0.0058400  -0.1653600  -0.0053700  -0.1653800   1.4883600   0.0487200  -0.0031300   0.0283600   0.0280300
  -0.0766000   0.0819200   0.0003500   0.0732400   0.0043600   0.0003200  -0.0016700   0.0027000   0.1336900
  -0.0496500  -0.0817400   0.0002000  -0.0870900   0.0052800   0.0004400  -0.0000300   0.0014000   0.1251800
   0.0537800   0.0176000   0.0000000   0.0176300  -0.1051000  -0.0000100  -0.0000900   0.0008200   0.1412200
  -0.0827200   0.0623000  -0.0002900   0.0676000   0.0381500   0.0003700  -0.0002700   0.0013700   0.1251800
  -0.0401400  -0.0918100  -0.0003900  -0.0831100  -0.0320400   0.0002500   0.0010400   0.0030000   0.1336800
   0.1132700  -0.0466900  -0.0754700  -0.0368800   0.1669200   0.1665100  -0.0510700   0.0264300   0.2333400
   0.0978900   0.0315400   0.0376200   0.0214700   0.1822100   0.1788000   0.0440500   0.0368400   0.2334100
  -0.1105500   0.1396400   0.0470900   0.1398100  -1.3723300  -0.4295700   0.0101800  -0.0920800  -0.4025900
