mesh: [     1,     1,     1 ]
nqpoint: 1      
reciprocal_lattice:
- [   0.05117642,   0.00000000,   0.00000000 ] # a*
- [   0.00000000,   0.04795685,   0.00000000 ] # b*
- [   0.00000000,   0.00000000,   0.06666667 ] # c*
natom:   14     
lattice:
- [    19.5402500000000003,     0.0000000000000000,     0.0000000000000000 ] # a
- [     0.0000000000000000,    20.8520800000000008,     0.0000000000000000 ] # b
- [     0.0000000000000000,     0.0000000000000000,    15.0000000000000000 ] # c
atoms:
- symbol: C  # 1
  position: [  0.4346294112843200,  0.5052138137253551,  0.4995474543760942 ]
  mass: 12.010700
- symbol: C  # 2
  position: [  0.4426780277976768,  0.4388032785326710,  0.4999799788753890 ]
  mass: 12.010700
- symbol: C  # 3
  position: [  0.5078486351950928,  0.4111745620686999,  0.5001043671062076 ]
  mass: 12.010700
- symbol: C  # 4
  position: [  0.5651158447841456,  0.4513395148408928,  0.4999828054813902 ]
  mass: 12.010700
- symbol: C  # 5
  position: [  0.5576697603015631,  0.5178118390762899,  0.4995501306921968 ]
  mass: 12.010700
- symbol: C  # 6
  position: [  0.4921471288267911,  0.5458455239952911,  0.4991013249365224 ]
  mass: 12.010700
- symbol: H  # 7
  position: [  0.3833553916012112,  0.5260739677968354,  0.4997931809111548 ]
  mass: 1.007940
- symbol: H  # 8
  position: [  0.3973112848439285,  0.4083020116251044,  0.5000877492574591 ]
  mass: 1.007940
- symbol: H  # 9
  position: [  0.5139059176360844,  0.3592282714391398,  0.5001997901405631 ]
  mass: 1.007940
- symbol: H  # 10
  position: [  0.6164401593713482,  0.4307382902921745,  0.5000902707707131 ]
  mass: 1.007940
- symbol: H  # 11
  position: [  0.6029279304760680,  0.5485550971764148,  0.4997935422275042 ]
  mass: 1.007940
- symbol: H  # 12
  position: [  0.4389181690298476,  0.6296373076945800,  0.4803005813045474 ]
  mass: 1.007940
- symbol: H  # 13
  position: [  0.5248183500852444,  0.6384347034712186,  0.4803469595519594 ]
  mass: 1.007940
- symbol: N  # 14
  position: [  0.4843977277157676,  0.6122869613877195,  0.5022467443905384 ]
  mass: 14.006700
supercell_matrix:
- [    1,    0,    0 ]
- [    0,    1,    0 ]
- [    0,    0,    1 ]

phonon:
- q-position: [    0.0000000,    0.0000000,    0.0000000 ]
  weight: 1    
  band:
  - # 1
    frequency:    -0.0886108363
    eigenvector:
    - # atom 1
      - [ -0.01989756209790,  0.00000000000000 ]
      - [ -0.25066231011809,  0.00000000000000 ]
      - [  0.02492498060463,  0.00000000000000 ]
    - # atom 2
      - [  0.26327024458804,  0.00000000000000 ]
      - [ -0.21867444409130,  0.00000000000000 ]
      - [ -0.00022461849509,  0.00000000000000 ]
    - # atom 3
      - [  0.38103396757367,  0.00000000000000 ]
      - [  0.04151764111077,  0.00000000000000 ]
      - [ -0.03374213992979,  0.00000000000000 ]
    - # atom 4
      - [  0.20986166680150,  0.00000000000000 ]
      - [  0.27020912051057,  0.00000000000000 ]
      - [ -0.04167115404116,  0.00000000000000 ]
    - # atom 5
      - [ -0.07355443608485,  0.00000000000000 ]
      - [  0.24053421655011,  0.00000000000000 ]
      - [ -0.01669035951548,  0.00000000000000 ]
    - # atom 6
      - [ -0.19307260274811,  0.00000000000000 ]
      - [ -0.02093823157412,  0.00000000000000 ]
      - [  0.01705338509154,  0.00000000000000 ]
    - # atom 7
      - [ -0.03151205065338,  0.00000000000000 ]
      - [ -0.13195789661567,  0.00000000000000 ]
      - [  0.01477488868015,  0.00000000000000 ]
    - # atom 8
      - [  0.11395593734441,  0.00000000000000 ]
      - [ -0.11588252904642,  0.00000000000000 ]
      - [  0.00189123786877,  0.00000000000000 ]
    - # atom 9
      - [  0.17448875293356,  0.00000000000000 ]
      - [  0.01902359978696,  0.00000000000000 ]
      - [ -0.01544713130151,  0.00000000000000 ]
    - # atom 10
      - [  0.08624277328997,  0.00000000000000 ]
      - [  0.13767267346194,  0.00000000000000 ]
      - [ -0.01960064534946,  0.00000000000000 ]
    - # atom 11
      - [ -0.05928061459910,  0.00000000000000 ]
      - [  0.12205610920812,  0.00000000000000 ]
      - [ -0.00671346378693,  0.00000000000000 ]
    - # atom 12
      - [ -0.16071631058676,  0.00000000000000 ]
      - [ -0.06615420040289,  0.00000000000000 ]
      - [  0.01886341308382,  0.00000000000000 ]
    - # atom 13
      - [ -0.17154683543562,  0.00000000000000 ]
      - [  0.03295024165803,  0.00000000000000 ]
      - [  0.01037786320388,  0.00000000000000 ]
    - # atom 14
      - [ -0.51266709018471,  0.00000000000000 ]
      - [ -0.05678488095177,  0.00000000000000 ]
      - [  0.04551234479397,  0.00000000000000 ]
  - # 2
    frequency:    -0.0000011420
    eigenvector:
    - # atom 1
      - [ -0.00000000001756,  0.00000000000000 ]
      - [  0.26680346172275,  0.00000000000000 ]
      - [  0.24039097908684,  0.00000000000000 ]
    - # atom 2
      - [  0.00000000000551,  0.00000000000000 ]
      - [  0.26680346172541,  0.00000000000000 ]
      - [  0.24039097909560,  0.00000000000000 ]
    - # atom 3
      - [  0.00000000001511,  0.00000000000000 ]
      - [  0.26680346174668,  0.00000000000000 ]
      - [  0.24039097911064,  0.00000000000000 ]
    - # atom 4
      - [  0.00000000000114,  0.00000000000000 ]
      - [  0.26680346176536,  0.00000000000000 ]
      - [  0.24039097911677,  0.00000000000000 ]
    - # atom 5
      - [ -0.00000000002194,  0.00000000000000 ]
      - [  0.26680346176289,  0.00000000000000 ]
      - [  0.24039097910809,  0.00000000000000 ]
    - # atom 6
      - [ -0.00000000003164,  0.00000000000000 ]
      - [  0.26680346174148,  0.00000000000000 ]
      - [  0.24039097909298,  0.00000000000000 ]
    - # atom 7
      - [ -0.00000000000720,  0.00000000000000 ]
      - [  0.07729023729648,  0.00000000000000 ]
      - [  0.06963881089789,  0.00000000000000 ]
    - # atom 8
      - [  0.00000000000467,  0.00000000000000 ]
      - [  0.07729023729781,  0.00000000000000 ]
      - [  0.06963881090237,  0.00000000000000 ]
    - # atom 9
      - [  0.00000000000961,  0.00000000000000 ]
      - [  0.07729023730883,  0.00000000000000 ]
      - [  0.06963881091016,  0.00000000000000 ]
    - # atom 10
      - [  0.00000000000241,  0.00000000000000 ]
      - [  0.07729023731852,  0.00000000000000 ]
      - [  0.06963881091335,  0.00000000000000 ]
    - # atom 11
      - [ -0.00000000000947,  0.00000000000000 ]
      - [  0.07729023731724,  0.00000000000000 ]
      - [  0.06963881090887,  0.00000000000000 ]
    - # atom 12
      - [ -0.00000000001684,  0.00000000000000 ]
      - [  0.07729023730130,  0.00000000000000 ]
      - [  0.06963881089760,  0.00000000000000 ]
    - # atom 13
      - [ -0.00000000001773,  0.00000000000000 ]
      - [  0.07729023730941,  0.00000000000000 ]
      - [  0.06963881090188,  0.00000000000000 ]
    - # atom 14
      - [ -0.00000000005960,  0.00000000000000 ]
      - [  0.28812119935244,  0.00000000000000 ]
      - [  0.25959834537299,  0.00000000000000 ]
  - # 3
    frequency:    -0.0000005856
    eigenvector:
    - # atom 1
      - [  0.35912659332204,  0.00000000000000 ]
      - [  0.00000000004336,  0.00000000000000 ]
      - [ -0.00000000000723,  0.00000000000000 ]
    - # atom 2
      - [  0.35912659330663,  0.00000000000000 ]
      - [  0.00000000004162,  0.00000000000000 ]
      - [ -0.00000000000582,  0.00000000000000 ]
    - # atom 3
      - [  0.35912659330022,  0.00000000000000 ]
      - [  0.00000000002745,  0.00000000000000 ]
      - [ -0.00000000000722,  0.00000000000000 ]
    - # atom 4
      - [  0.35912659330954,  0.00000000000000 ]
      - [  0.00000000001499,  0.00000000000000 ]
      - [ -0.00000000001007,  0.00000000000000 ]
    - # atom 5
      - [  0.35912659332496,  0.00000000000000 ]
      - [  0.00000000001661,  0.00000000000000 ]
      - [ -0.00000000001149,  0.00000000000000 ]
    - # atom 6
      - [  0.35912659333145,  0.00000000000000 ]
      - [  0.00000000003085,  0.00000000000000 ]
      - [ -0.00000000001009,  0.00000000000000 ]
    - # atom 7
      - [  0.10403530539006,  0.00000000000000 ]
      - [  0.00000000001579,  0.00000000000000 ]
      - [ -0.00000000000177,  0.00000000000000 ]
    - # atom 8
      - [  0.10403530538214,  0.00000000000000 ]
      - [  0.00000000001492,  0.00000000000000 ]
      - [ -0.00000000000104,  0.00000000000000 ]
    - # atom 9
      - [  0.10403530537885,  0.00000000000000 ]
      - [  0.00000000000757,  0.00000000000000 ]
      - [ -0.00000000000177,  0.00000000000000 ]
    - # atom 10
      - [  0.10403530538365,  0.00000000000000 ]
      - [  0.00000000000111,  0.00000000000000 ]
      - [ -0.00000000000324,  0.00000000000000 ]
    - # atom 11
      - [  0.10403530539157,  0.00000000000000 ]
      - [  0.00000000000196,  0.00000000000000 ]
      - [ -0.00000000000397,  0.00000000000000 ]
    - # atom 12
      - [  0.10403530539687,  0.00000000000000 ]
      - [  0.00000000001218,  0.00000000000000 ]
      - [ -0.00000000000304,  0.00000000000000 ]
    - # atom 13
      - [  0.10403530539746,  0.00000000000000 ]
      - [  0.00000000000679,  0.00000000000000 ]
      - [ -0.00000000000390,  0.00000000000000 ]
    - # atom 14
      - [  0.38782099797345,  0.00000000000000 ]
      - [  0.00000000003519,  0.00000000000000 ]
      - [ -0.00000000001243,  0.00000000000000 ]
  - # 4
    frequency:     0.0000006479
    eigenvector:
    - # atom 1
      - [  0.00000000002620,  0.00000000000000 ]
      - [ -0.24039097910460,  0.00000000000000 ]
      - [  0.26680346175070,  0.00000000000000 ]
    - # atom 2
      - [  0.00000000003266,  0.00000000000000 ]
      - [ -0.24039097910388,  0.00000000000000 ]
      - [  0.26680346174702,  0.00000000000000 ]
    - # atom 3
      - [  0.00000000003534,  0.00000000000000 ]
      - [ -0.24039097909798,  0.00000000000000 ]
      - [  0.26680346173833,  0.00000000000000 ]
    - # atom 4
      - [  0.00000000003145,  0.00000000000000 ]
      - [ -0.24039097909279,  0.00000000000000 ]
      - [  0.26680346173338,  0.00000000000000 ]
    - # atom 5
      - [  0.00000000002498,  0.00000000000000 ]
      - [ -0.24039097909345,  0.00000000000000 ]
      - [  0.26680346173699,  0.00000000000000 ]
    - # atom 6
      - [  0.00000000002224,  0.00000000000000 ]
      - [ -0.24039097909938,  0.00000000000000 ]
      - [  0.26680346174573,  0.00000000000000 ]
    - # atom 7
      - [  0.00000000000701,  0.00000000000000 ]
      - [ -0.06963881090778,  0.00000000000000 ]
      - [  0.07729023731139,  0.00000000000000 ]
    - # atom 8
      - [  0.00000000001032,  0.00000000000000 ]
      - [ -0.06963881090742,  0.00000000000000 ]
      - [  0.07729023730951,  0.00000000000000 ]
    - # atom 9
      - [  0.00000000001170,  0.00000000000000 ]
      - [ -0.06963881090436,  0.00000000000000 ]
      - [  0.07729023730501,  0.00000000000000 ]
    - # atom 10
      - [  0.00000000000969,  0.00000000000000 ]
      - [ -0.06963881090167,  0.00000000000000 ]
      - [  0.07729023730244,  0.00000000000000 ]
    - # atom 11
      - [  0.00000000000638,  0.00000000000000 ]
      - [ -0.06963881090202,  0.00000000000000 ]
      - [  0.07729023730431,  0.00000000000000 ]
    - # atom 12
      - [  0.00000000000362,  0.00000000000000 ]
      - [ -0.06963881090615,  0.00000000000000 ]
      - [  0.07729023731077,  0.00000000000000 ]
    - # atom 13
      - [  0.00000000000338,  0.00000000000000 ]
      - [ -0.06963881090390,  0.00000000000000 ]
      - [  0.07729023730801,  0.00000000000000 ]
    - # atom 14
      - [  0.00000000001740,  0.00000000000000 ]
      - [ -0.25959834539011,  0.00000000000000 ]
      - [  0.28812119936345,  0.00000000000000 ]
  - # 5
    frequency:     0.1826617055
    eigenvector:
    - # atom 1
      - [  0.00118234497313,  0.00000000000000 ]
      - [  0.02287422688756,  0.00000000000000 ]
      - [  0.30520171721483,  0.00000000000000 ]
    - # atom 2
      - [ -0.02260459447991,  0.00000000000000 ]
      - [  0.01884266837662,  0.00000000000000 ]
      - [  0.02596765827211,  0.00000000000000 ]
    - # atom 3
      - [ -0.03268246099619,  0.00000000000000 ]
      - [ -0.00480236057737,  0.00000000000000 ]
      - [ -0.37431275904709,  0.00000000000000 ]
    - # atom 4
      - [ -0.01776857356187,  0.00000000000000 ]
      - [ -0.02497230847515,  0.00000000000000 ]
      - [ -0.49018551399855,  0.00000000000000 ]
    - # atom 5
      - [  0.00604956047478,  0.00000000000000 ]
      - [ -0.02118996451859,  0.00000000000000 ]
      - [ -0.21304313769541,  0.00000000000000 ]
    - # atom 6
      - [  0.01520174708734,  0.00000000000000 ]
      - [  0.00337080809757,  0.00000000000000 ]
      - [  0.18926561273202,  0.00000000000000 ]
    - # atom 7
      - [  0.00290152677786,  0.00000000000000 ]
      - [  0.01178176919506,  0.00000000000000 ]
      - [  0.17873809720715,  0.00000000000000 ]
    - # atom 8
      - [ -0.00980476433783,  0.00000000000000 ]
      - [  0.01006940799859,  0.00000000000000 ]
      - [  0.03571424173576,  0.00000000000000 ]
    - # atom 9
      - [ -0.01507160258213,  0.00000000000000 ]
      - [ -0.00209281441243,  0.00000000000000 ]
      - [ -0.17141855464651,  0.00000000000000 ]
    - # atom 10
      - [ -0.00731675853203,  0.00000000000000 ]
      - [ -0.01263887816383,  0.00000000000000 ]
      - [ -0.23193854825089,  0.00000000000000 ]
    - # atom 11
      - [  0.00535100574686,  0.00000000000000 ]
      - [ -0.01094998376627,  0.00000000000000 ]
      - [ -0.08899185839603,  0.00000000000000 ]
    - # atom 12
      - [ -0.00538763692273,  0.00000000000000 ]
      - [  0.02075377409365,  0.00000000000000 ]
      - [  0.21367099835099,  0.00000000000000 ]
    - # atom 13
      - [ -0.00437778454425,  0.00000000000000 ]
      - [  0.01182444211015,  0.00000000000000 ]
      - [  0.10920199811466,  0.00000000000000 ]
    - # atom 14
      - [  0.05591835816057,  0.00000000000000 ]
      - [ -0.00226964388500,  0.00000000000000 ]
      - [  0.50382161325066,  0.00000000000000 ]
  - # 6
    frequency:     0.1955228433
    eigenvector:
    - # atom 1
      - [  0.00071740538324,  0.00000000000000 ]
      - [  0.00060842223285,  0.00000000000000 ]
      - [ -0.32237096717300,  0.00000000000000 ]
    - # atom 2
      - [ -0.00143374584791,  0.00000000000000 ]
      - [ -0.00055037365470,  0.00000000000000 ]
      - [ -0.52485436812417,  0.00000000000000 ]
    - # atom 3
      - [ -0.00206605949072,  0.00000000000000 ]
      - [ -0.00111611122233,  0.00000000000000 ]
      - [ -0.27429893673606,  0.00000000000000 ]
    - # atom 4
      - [ -0.00136895325261,  0.00000000000000 ]
      - [ -0.00100552407570,  0.00000000000000 ]
      - [  0.18464986875100,  0.00000000000000 ]
    - # atom 5
      - [  0.00077377901621,  0.00000000000000 ]
      - [  0.00021272538007,  0.00000000000000 ]
      - [  0.38993703239010,  0.00000000000000 ]
    - # atom 6
      - [  0.00268400054906,  0.00000000000000 ]
      - [  0.00153384324088,  0.00000000000000 ]
      - [  0.13869767953165,  0.00000000000000 ]
    - # atom 7
      - [ -0.00001941633305,  0.00000000000000 ]
      - [  0.00012212414939,  0.00000000000000 ]
      - [ -0.15109576650275,  0.00000000000000 ]
    - # atom 8
      - [ -0.00058399621652,  0.00000000000000 ]
      - [ -0.00018786005431,  0.00000000000000 ]
      - [ -0.25586543104981,  0.00000000000000 ]
    - # atom 9
      - [ -0.00083047409830,  0.00000000000000 ]
      - [ -0.00041332536879,  0.00000000000000 ]
      - [ -0.12562163524329,  0.00000000000000 ]
    - # atom 10
      - [ -0.00055838611428,  0.00000000000000 ]
      - [ -0.00044622706063,  0.00000000000000 ]
      - [  0.11207314945160,  0.00000000000000 ]
    - # atom 11
      - [ -0.00002222934709,  0.00000000000000 ]
      - [ -0.00016922537935,  0.00000000000000 ]
      - [  0.21688002192499,  0.00000000000000 ]
    - # atom 12
      - [  0.02327359556153,  0.00000000000000 ]
      - [  0.01486195595310,  0.00000000000000 ]
      - [  0.04654185719812,  0.00000000000000 ]
    - # atom 13
      - [  0.02320341820105,  0.00000000000000 ]
      - [  0.01483419100451,  0.00000000000000 ]
      - [  0.19000483704708,  0.00000000000000 ]
    - # atom 14
      - [ -0.01128507805346,  0.00000000000000 ]
      - [ -0.00737899711941,  0.00000000000000 ]
      - [  0.36920434121580,  0.00000000000000 ]
  - # 7
    frequency:     6.3141604762
    eigenvector:
    - # atom 1
      - [  0.00033921869844,  0.00000000000000 ]
      - [  0.00154272527779,  0.00000000000000 ]
      - [  0.41212046823926,  0.00000000000000 ]
    - # atom 2
      - [  0.00041096507177,  0.00000000000000 ]
      - [ -0.00075192854505,  0.00000000000000 ]
      - [ -0.00065383988056,  0.00000000000000 ]
    - # atom 3
      - [  0.00033208181446,  0.00000000000000 ]
      - [ -0.00242336490991,  0.00000000000000 ]
      - [ -0.42487216749349,  0.00000000000000 ]
    - # atom 4
      - [ -0.00018478818061,  0.00000000000000 ]
      - [ -0.00072443395913,  0.00000000000000 ]
      - [ -0.00075375440092,  0.00000000000000 ]
    - # atom 5
      - [ -0.00076305707676,  0.00000000000000 ]
      - [  0.00150622216878,  0.00000000000000 ]
      - [  0.41210133365389,  0.00000000000000 ]
    - # atom 6
      - [ -0.00001298705212,  0.00000000000000 ]
      - [ -0.00050047843778,  0.00000000000000 ]
      - [  0.21385474850693,  0.00000000000000 ]
    - # atom 7
      - [  0.00066848996144,  0.00000000000000 ]
      - [  0.00123858123801,  0.00000000000000 ]
      - [  0.16928279873980,  0.00000000000000 ]
    - # atom 8
      - [  0.00002424699167,  0.00000000000000 ]
      - [ -0.00012281835351,  0.00000000000000 ]
      - [ -0.01922443521441,  0.00000000000000 ]
    - # atom 9
      - [  0.00013173262842,  0.00000000000000 ]
      - [ -0.00089586223658,  0.00000000000000 ]
      - [ -0.26619880238443,  0.00000000000000 ]
    - # atom 10
      - [  0.00003210322927,  0.00000000000000 ]
      - [ -0.00006629522796,  0.00000000000000 ]
      - [ -0.01929624698288,  0.00000000000000 ]
    - # atom 11
      - [ -0.00096068930499,  0.00000000000000 ]
      - [  0.00110562290829,  0.00000000000000 ]
      - [  0.16925911480674,  0.00000000000000 ]
    - # atom 12
      - [  0.00687518495781,  0.00000000000000 ]
      - [ -0.04611046971742,  0.00000000000000 ]
      - [ -0.20293540818706,  0.00000000000000 ]
    - # atom 13
      - [  0.00344541452387,  0.00000000000000 ]
      - [ -0.04647583760982,  0.00000000000000 ]
      - [ -0.20251881115827,  0.00000000000000 ]
    - # atom 14
      - [ -0.00285308132332,  0.00000000000000 ]
      - [  0.02575031634333,  0.00000000000000 ]
      - [ -0.46683823376898,  0.00000000000000 ]
  - # 8
    frequency:     9.5210908586
    eigenvector:
    - # atom 1
      - [ -0.05088417982888,  0.00000000000000 ]
      - [ -0.02562651198792,  0.00000000000000 ]
      - [  0.08054665409330,  0.00000000000000 ]
    - # atom 2
      - [  0.01504929978399,  0.00000000000000 ]
      - [ -0.02084210807260,  0.00000000000000 ]
      - [  0.00783215248148,  0.00000000000000 ]
    - # atom 3
      - [  0.03357878242626,  0.00000000000000 ]
      - [  0.00365946502554,  0.00000000000000 ]
      - [  0.00017351803887,  0.00000000000000 ]
    - # atom 4
      - [  0.01023081307938,  0.00000000000000 ]
      - [  0.02350580836781,  0.00000000000000 ]
      - [ -0.00796281466783,  0.00000000000000 ]
    - # atom 5
      - [ -0.05525797030574,  0.00000000000000 ]
      - [  0.01397181714480,  0.00000000000000 ]
      - [ -0.08092764924889,  0.00000000000000 ]
    - # atom 6
      - [ -0.05685890729999,  0.00000000000000 ]
      - [ -0.00625524244678,  0.00000000000000 ]
      - [  0.00001668454318,  0.00000000000000 ]
    - # atom 7
      - [ -0.01662242643638,  0.00000000000000 ]
      - [ -0.01506055400394,  0.00000000000000 ]
      - [  0.09154794828639,  0.00000000000000 ]
    - # atom 8
      - [  0.01143084034779,  0.00000000000000 ]
      - [ -0.01600251529543,  0.00000000000000 ]
      - [  0.02050891642296,  0.00000000000000 ]
    - # atom 9
      - [  0.01571699744592,  0.00000000000000 ]
      - [  0.00171170346802,  0.00000000000000 ]
      - [  0.00012166551473,  0.00000000000000 ]
    - # atom 10
      - [  0.00770884588014,  0.00000000000000 ]
      - [  0.01804341160151,  0.00000000000000 ]
      - [ -0.02056233048329,  0.00000000000000 ]
    - # atom 11
      - [ -0.01950576218506,  0.00000000000000 ]
      - [  0.01110914573870,  0.00000000000000 ]
      - [ -0.09170571053528,  0.00000000000000 ]
    - # atom 12
      - [  0.25774121805194,  0.00000000000000 ]
      - [  0.08231433086190,  0.00000000000000 ]
      - [ -0.63557360803656,  0.00000000000000 ]
    - # atom 13
      - [  0.26881251183075,  0.00000000000000 ]
      - [ -0.02515963607545,  0.00000000000000 ]
      - [  0.63474199466905,  0.00000000000000 ]
    - # atom 14
      - [ -0.04447329274422,  0.00000000000000 ]
      - [ -0.00454927682842,  0.00000000000000 ]
      - [  0.00054476778576,  0.00000000000000 ]
  - # 9
    frequency:    11.2333871039
    eigenvector:
    - # atom 1
      - [ -0.28707953732000,  0.00000000000000 ]
      - [ -0.13192525513623,  0.00000000000000 ]
      - [ -0.02343663576926,  0.00000000000000 ]
    - # atom 2
      - [  0.05980771939574,  0.00000000000000 ]
      - [ -0.15863061040784,  0.00000000000000 ]
      - [  0.01179315103116,  0.00000000000000 ]
    - # atom 3
      - [  0.13763186345685,  0.00000000000000 ]
      - [  0.01506683441843,  0.00000000000000 ]
      - [  0.00004192133269,  0.00000000000000 ]
    - # atom 4
      - [  0.02416689463944,  0.00000000000000 ]
      - [  0.16782295836916,  0.00000000000000 ]
      - [ -0.01185305414866,  0.00000000000000 ]
    - # atom 5
      - [ -0.30876317850269,  0.00000000000000 ]
      - [  0.06684716058292,  0.00000000000000 ]
      - [  0.02335950964300,  0.00000000000000 ]
    - # atom 6
      - [ -0.33013156653812,  0.00000000000000 ]
      - [ -0.03609283328139,  0.00000000000000 ]
      - [  0.00005439115054,  0.00000000000000 ]
    - # atom 7
      - [ -0.11172345507295,  0.00000000000000 ]
      - [ -0.10599125942188,  0.00000000000000 ]
      - [ -0.03112160138477,  0.00000000000000 ]
    - # atom 8
      - [  0.05571629646651,  0.00000000000000 ]
      - [ -0.10035413331067,  0.00000000000000 ]
      - [  0.00247753641947,  0.00000000000000 ]
    - # atom 9
      - [  0.08045229642590,  0.00000000000000 ]
      - [  0.00879914304809,  0.00000000000000 ]
      - [  0.00001547274914,  0.00000000000000 ]
    - # atom 10
      - [  0.03272485901858,  0.00000000000000 ]
      - [  0.10999463652675,  0.00000000000000 ]
      - [ -0.00254739799796,  0.00000000000000 ]
    - # atom 11
      - [ -0.13199184858244,  0.00000000000000 ]
      - [  0.07941309983141,  0.00000000000000 ]
      - [  0.03101907829217,  0.00000000000000 ]
    - # atom 12
      - [  0.18483742981020,  0.00000000000000 ]
      - [  0.22690397404951,  0.00000000000000 ]
      - [  0.14072003646374,  0.00000000000000 ]
    - # atom 13
      - [  0.22962231657758,  0.00000000000000 ]
      - [ -0.18186505880623,  0.00000000000000 ]
      - [ -0.14098543519356,  0.00000000000000 ]
    - # atom 14
      - [  0.56114258709487,  0.00000000000000 ]
      - [  0.06132238500551,  0.00000000000000 ]
      - [  0.00015099153846,  0.00000000000000 ]
  - # 10
    frequency:    12.0754434250
    eigenvector:
    - # atom 1
      - [  0.01004655139713,  0.00000000000000 ]
      - [  0.00120475074005,  0.00000000000000 ]
      - [ -0.41986186896470,  0.00000000000000 ]
    - # atom 2
      - [ -0.00215492468204,  0.00000000000000 ]
      - [  0.00460503032256,  0.00000000000000 ]
      - [  0.42528998470185,  0.00000000000000 ]
    - # atom 3
      - [ -0.00517943137608,  0.00000000000000 ]
      - [ -0.00057383930376,  0.00000000000000 ]
      - [  0.00000398860588,  0.00000000000000 ]
    - # atom 4
      - [ -0.00110827382790,  0.00000000000000 ]
      - [ -0.00496427583376,  0.00000000000000 ]
      - [ -0.42528652118220,  0.00000000000000 ]
    - # atom 5
      - [  0.01004128313086,  0.00000000000000 ]
      - [  0.00098786398810,  0.00000000000000 ]
      - [  0.41978386120613,  0.00000000000000 ]
    - # atom 6
      - [  0.01071346200155,  0.00000000000000 ]
      - [  0.00116820706452,  0.00000000000000 ]
      - [ -0.00003634354771,  0.00000000000000 ]
    - # atom 7
      - [  0.00315365148637,  0.00000000000000 ]
      - [  0.00204568208590,  0.00000000000000 ]
      - [ -0.24979815252277,  0.00000000000000 ]
    - # atom 8
      - [ -0.00190367787627,  0.00000000000000 ]
      - [  0.00352404604936,  0.00000000000000 ]
      - [  0.27315510282473,  0.00000000000000 ]
    - # atom 9
      - [ -0.00240176918661,  0.00000000000000 ]
      - [ -0.00026492582370,  0.00000000000000 ]
      - [  0.00001426160692,  0.00000000000000 ]
    - # atom 10
      - [ -0.00109358534068,  0.00000000000000 ]
      - [ -0.00384231977418,  0.00000000000000 ]
      - [ -0.27314709649040,  0.00000000000000 ]
    - # atom 11
      - [  0.00351513519942,  0.00000000000000 ]
      - [ -0.00131678182594,  0.00000000000000 ]
      - [  0.24979710539224,  0.00000000000000 ]
    - # atom 12
      - [  0.01660980541852,  0.00000000000000 ]
      - [ -0.00409497623449,  0.00000000000000 ]
      - [ -0.07005768837261,  0.00000000000000 ]
    - # atom 13
      - [  0.01526343577071,  0.00000000000000 ]
      - [  0.00752652585000,  0.00000000000000 ]
      - [  0.06996257365286,  0.00000000000000 ]
    - # atom 14
      - [ -0.02959518308460,  0.00000000000000 ]
      - [ -0.00320773049188,  0.00000000000000 ]
      - [  0.00011881232386,  0.00000000000000 ]
  - # 11
    frequency:    14.4076407345
    eigenvector:
    - # atom 1
      - [  0.02829805353939,  0.00000000000000 ]
      - [ -0.00957269753594,  0.00000000000000 ]
      - [ -0.01634340087071,  0.00000000000000 ]
    - # atom 2
      - [  0.01282014857561,  0.00000000000000 ]
      - [ -0.02506766515122,  0.00000000000000 ]
      - [ -0.20892694510791,  0.00000000000000 ]
    - # atom 3
      - [  0.00379161965865,  0.00000000000000 ]
      - [ -0.03521255053665,  0.00000000000000 ]
      - [  0.31248358830969,  0.00000000000000 ]
    - # atom 4
      - [ -0.00710245611345,  0.00000000000000 ]
      - [ -0.02734246056371,  0.00000000000000 ]
      - [ -0.20889125756539,  0.00000000000000 ]
    - # atom 5
      - [ -0.02529491220099,  0.00000000000000 ]
      - [ -0.01548168926894,  0.00000000000000 ]
      - [ -0.01634151846282,  0.00000000000000 ]
    - # atom 6
      - [ -0.00127215357478,  0.00000000000000 ]
      - [  0.01250804100568,  0.00000000000000 ]
      - [  0.47848932824507,  0.00000000000000 ]
    - # atom 7
      - [  0.00391076670485,  0.00000000000000 ]
      - [ -0.01007622513581,  0.00000000000000 ]
      - [ -0.19586208864985,  0.00000000000000 ]
    - # atom 8
      - [  0.00098667851793,  0.00000000000000 ]
      - [ -0.00382237828855,  0.00000000000000 ]
      - [ -0.24070216433267,  0.00000000000000 ]
    - # atom 9
      - [  0.00110217595820,  0.00000000000000 ]
      - [ -0.01045897448409,  0.00000000000000 ]
      - [  0.10326578716737,  0.00000000000000 ]
    - # atom 10
      - [ -0.00015240611495,  0.00000000000000 ]
      - [ -0.00401150127175,  0.00000000000000 ]
      - [ -0.24065940388253,  0.00000000000000 ]
    - # atom 11
      - [ -0.00153719117729,  0.00000000000000 ]
      - [ -0.01074012918278,  0.00000000000000 ]
      - [ -0.19573622359799,  0.00000000000000 ]
    - # atom 12
      - [  0.05714648007139,  0.00000000000000 ]
      - [ -0.13631255846366,  0.00000000000000 ]
      - [ -0.38161625020761,  0.00000000000000 ]
    - # atom 13
      - [ -0.02656637745406,  0.00000000000000 ]
      - [ -0.14532993518104,  0.00000000000000 ]
      - [ -0.38251963934465,  0.00000000000000 ]
    - # atom 14
      - [ -0.01976812914235,  0.00000000000000 ]
      - [  0.17880120283571,  0.00000000000000 ]
      - [  0.09618023116928,  0.00000000000000 ]
  - # 12
    frequency:    15.4735491815
    eigenvector:
    - # atom 1
      - [  0.19115300967666,  0.00000000000000 ]
      - [ -0.04409202894463,  0.00000000000000 ]
      - [ -0.03998092163319,  0.00000000000000 ]
    - # atom 2
      - [  0.16601588211190,  0.00000000000000 ]
      - [ -0.11909787929383,  0.00000000000000 ]
      - [  0.10601577644074,  0.00000000000000 ]
    - # atom 3
      - [  0.03969011613391,  0.00000000000000 ]
      - [ -0.36347156388931,  0.00000000000000 ]
      - [ -0.15653360518172,  0.00000000000000 ]
    - # atom 4
      - [ -0.13647632457891,  0.00000000000000 ]
      - [ -0.15207911549065,  0.00000000000000 ]
      - [  0.10607141331502,  0.00000000000000 ]
    - # atom 5
      - [ -0.17697288916387,  0.00000000000000 ]
      - [ -0.08423506877519,  0.00000000000000 ]
      - [ -0.04000769723659,  0.00000000000000 ]
    - # atom 6
      - [ -0.02819304583465,  0.00000000000000 ]
      - [  0.25846137497708,  0.00000000000000 ]
      - [ -0.25224718902635,  0.00000000000000 ]
    - # atom 7
      - [  0.02361209319317,  0.00000000000000 ]
      - [ -0.08434417708290,  0.00000000000000 ]
      - [  0.10224368734384,  0.00000000000000 ]
    - # atom 8
      - [  0.00832430345587,  0.00000000000000 ]
      - [  0.02014732910837,  0.00000000000000 ]
      - [  0.13842345142183,  0.00000000000000 ]
    - # atom 9
      - [  0.01154441071159,  0.00000000000000 ]
      - [ -0.10556396771893,  0.00000000000000 ]
      - [ -0.03227318693824,  0.00000000000000 ]
    - # atom 10
      - [ -0.01252941088659,  0.00000000000000 ]
      - [  0.01783867831370,  0.00000000000000 ]
      - [  0.13852246896317,  0.00000000000000 ]
    - # atom 11
      - [ -0.00474598525497,  0.00000000000000 ]
      - [ -0.08749091665421,  0.00000000000000 ]
      - [  0.10231848081406,  0.00000000000000 ]
    - # atom 12
      - [  0.03618192933429,  0.00000000000000 ]
      - [  0.03516709132424,  0.00000000000000 ]
      - [ -0.22143243077364,  0.00000000000000 ]
    - # atom 13
      - [ -0.04292989762498,  0.00000000000000 ]