phonopy:
  version: 1.12.2
  configuration:
    dim: "1 1 1"
    create_displacements: ".true."

supercell_matrix:
- [   1,   0,   0 ]
- [   0,   1,   0 ]
- [   0,   0,   1 ]

space_group:
  type: "P1"
  number: 1
  Hall_symbol: "P 1"

primitive_cell:
  lattice:
  - [    19.540250000000000,     0.000000000000000,     0.000000000000000 ] # a
  - [     0.000000000000000,    20.852080000000001,     0.000000000000000 ] # b
  - [     0.000000000000000,     0.000000000000000,    15.000000000000000 ] # c
  points:
  - symbol: C  # 1
    coordinates: [  0.434629411284320,  0.505213813725355,  0.499547454376094 ]
    mass: 12.010700
  - symbol: C  # 2
    coordinates: [  0.442678027797677,  0.438803278532671,  0.499979978875389 ]
    mass: 12.010700
  - symbol: C  # 3
    coordinates: [  0.507848635195093,  0.411174562068700,  0.500104367106208 ]
    mass: 12.010700
  - symbol: C  # 4
    coordinates: [  0.565115844784146,  0.451339514840893,  0.499982805481390 ]
    mass: 12.010700
  - symbol: C  # 5
    coordinates: [  0.557669760301563,  0.517811839076290,  0.499550130692197 ]
    mass: 12.010700
  - symbol: C  # 6
    coordinates: [  0.492147128826791,  0.545845523995291,  0.499101324936522 ]
    mass: 12.010700
  - symbol: H  # 7
    coordinates: [  0.383355391601211,  0.526073967796835,  0.499793180911155 ]
    mass: 1.007940
  - symbol: H  # 8
    coordinates: [  0.397311284843929,  0.408302011625104,  0.500087749257459 ]
    mass: 1.007940
  - symbol: H  # 9
    coordinates: [  0.513905917636084,  0.359228271439140,  0.500199790140563 ]
    mass: 1.007940
  - symbol: H  # 10
    coordinates: [  0.616440159371348,  0.430738290292174,  0.500090270770713 ]
    mass: 1.007940
  - symbol: H  # 11
    coordinates: [  0.602927930476068,  0.548555097176415,  0.499793542227504 ]
    mass: 1.007940
  - symbol: H  # 12
    coordinates: [  0.438918169029848,  0.629637307694580,  0.480300581304547 ]
    mass: 1.007940
  - symbol: H  # 13
    coordinates: [  0.524818350085244,  0.638434703471219,  0.480346959551959 ]
    mass: 1.007940
  - symbol: N  # 14
    coordinates: [  0.484397727715768,  0.612286961387720,  0.502246744390538 ]
    mass: 14.006700
  reciprocal_lattice: # without 2pi
  - [     0.051176417906629,     0.000000000000000,     0.000000000000000 ] # a*
  - [     0.000000000000000,     0.047956846511235,     0.000000000000000 ] # b*
  - [     0.000000000000000,     0.000000000000000,     0.066666666666667 ] # c*

unit_cell:
  lattice:
  - [    19.540250000000000,     0.000000000000000,     0.000000000000000 ] # a
  - [     0.000000000000000,    20.852080000000001,     0.000000000000000 ] # b
  - [     0.000000000000000,     0.000000000000000,    15.000000000000000 ] # c
  points:
  - symbol: C  # 1
    coordinates: [  0.434629411284320,  0.505213813725355,  0.499547454376094 ]
    mass: 12.010700
    reduced_to: 1
  - symbol: C  # 2
    coordinates: [  0.442678027797677,  0.438803278532671,  0.499979978875389 ]
    mass: 12.010700
    reduced_to: 2
  - symbol: C  # 3
    coordinates: [  0.507848635195093,  0.411174562068700,  0.500104367106208 ]
    mass: 12.010700
    reduced_to: 3
  - symbol: C  # 4
    coordinates: [  0.565115844784146,  0.451339514840893,  0.499982805481390 ]
    mass: 12.010700
    reduced_to: 4
  - symbol: C  # 5
    coordinates: [  0.557669760301563,  0.517811839076290,  0.499550130692197 ]
    mass: 12.010700
    reduced_to: 5
  - symbol: C  # 6
    coordinates: [  0.492147128826791,  0.545845523995291,  0.499101324936522 ]
    mass: 12.010700
    reduced_to: 6
  - symbol: H  # 7
    coordinates: [  0.383355391601211,  0.526073967796835,  0.499793180911155 ]
    mass: 1.007940
    reduced_to: 7
  - symbol: H  # 8
    coordinates: [  0.397311284843929,  0.408302011625104,  0.500087749257459 ]
    mass: 1.007940
    reduced_to: 8
  - symbol: H  # 9
    coordinates: [  0.513905917636084,  0.359228271439140,  0.500199790140563 ]
    mass: 1.007940
    reduced_to: 9
  - symbol: H  # 10
    coordinates: [  0.616440159371348,  0.430738290292174,  0.500090270770713 ]
    mass: 1.007940
    reduced_to: 10
  - symbol: H  # 11
    coordinates: [  0.602927930476068,  0.548555097176415,  0.499793542227504 ]
    mass: 1.007940
    reduced_to: 11
  - symbol: H  # 12
    coordinates: [  0.438918169029848,  0.629637307694580,  0.480300581304547 ]
    mass: 1.007940
    reduced_to: 12
  - symbol: H  # 13
    coordinates: [  0.524818350085244,  0.638434703471219,  0.480346959551959 ]
    mass: 1.007940
    reduced_to: 13
  - symbol: N  # 14
    coordinates: [  0.484397727715768,  0.612286961387720,  0.502246744390538 ]
    mass: 14.006700
    reduced_to: 14

supercell:
  lattice:
  - [    19.540250000000000,     0.000000000000000,     0.000000000000000 ] # a
  - [     0.000000000000000,    20.852080000000001,     0.000000000000000 ] # b
  - [     0.000000000000000,     0.000000000000000,    15.000000000000000 ] # c
  points:
  - symbol: C  # 1
    coordinates: [  0.434629411284320,  0.505213813725355,  0.499547454376094 ]
    mass: 12.010700
    reduced_to: 1
  - symbol: C  # 2
    coordinates: [  0.442678027797677,  0.438803278532671,  0.499979978875389 ]
    mass: 12.010700
    reduced_to: 2
  - symbol: C  # 3
    coordinates: [  0.507848635195093,  0.411174562068700,  0.500104367106208 ]
    mass: 12.010700
    reduced_to: 3
  - symbol: C  # 4
    coordinates: [  0.565115844784146,  0.451339514840893,  0.499982805481390 ]
    mass: 12.010700
    reduced_to: 4
  - symbol: C  # 5
    coordinates: [  0.557669760301563,  0.517811839076290,  0.499550130692197 ]
    mass: 12.010700
    reduced_to: 5
  - symbol: C  # 6
    coordinates: [  0.492147128826791,  0.545845523995291,  0.499101324936522 ]
    mass: 12.010700
    reduced_to: 6
  - symbol: H  # 7
    coordinates: [  0.383355391601211,  0.526073967796835,  0.499793180911155 ]
    mass: 1.007940
    reduced_to: 7
  - symbol: H  # 8
    coordinates: [  0.397311284843929,  0.408302011625104,  0.500087749257459 ]
    mass: 1.007940
    reduced_to: 8
  - symbol: H  # 9
    coordinates: [  0.513905917636084,  0.359228271439140,  0.500199790140563 ]
    mass: 1.007940
    reduced_to: 9
  - symbol: H  # 10
    coordinates: [  0.616440159371348,  0.430738290292174,  0.500090270770713 ]
    mass: 1.007940
    reduced_to: 10
  - symbol: H  # 11
    coordinates: [  0.602927930476068,  0.548555097176415,  0.499793542227504 ]
    mass: 1.007940
    reduced_to: 11
  - symbol: H  # 12
    coordinates: [  0.438918169029848,  0.629637307694580,  0.480300581304547 ]
    mass: 1.007940
    reduced_to: 12
  - symbol: H  # 13
    coordinates: [  0.524818350085244,  0.638434703471219,  0.480346959551959 ]
    mass: 1.007940
    reduced_to: 13
  - symbol: N  # 14
    coordinates: [  0.484397727715768,  0.612286961387720,  0.502246744390538 ]
    mass: 14.006700
    reduced_to: 14
