# epsilon and Z* of atoms 1 4
   2.48281998  -0.00000000   0.00000000   0.00000000   2.48281998   0.00000000   0.00000000   0.00000000   2.51573798
   2.97691617  -0.00000000  -0.00000000   0.00000000   3.61959942  -0.32406910   0.00000000   0.28095743   3.42336657
  -1.30863220  -0.49556120  -0.31187462  -0.43765909  -1.98996846  -0.68209791  -0.24457831  -0.72502612  -1.71183983
