mesh: [     1,     1,     1 ]
nqpoint: 1      
reciprocal_lattice:
- [   0.05163150,   0.00000000,   0.00000000 ] # a*
- [   0.00000000,   0.04754714,   0.00000000 ] # b*
- [   0.00000000,   0.00000000,   0.06666667 ] # c*
natom:   14     
lattice:
- [    19.368020000000001,     0.000000000000000,     0.000000000000000 ] # a
- [     0.000000000000000,    21.031759999999998,     0.000000000000000 ] # b
- [     0.000000000000000,     0.000000000000000,    15.000000000000000 ] # c
points:
- symbol: C  # 1
  coordinates: [  0.437334217598306,  0.508349145723607,  0.500000000000000 ]
  mass: 12.010700
- symbol: C  # 2
  coordinates: [  0.436229350816072,  0.442227431073364,  0.500000000000000 ]
  mass: 12.010700
- symbol: C  # 3
  coordinates: [  0.500790628189868,  0.540721347656466,  0.500000000000000 ]
  mass: 12.010700
- symbol: C  # 4
  coordinates: [  0.562797530001622,  0.506242516776698,  0.500000000000000 ]
  mass: 12.010700
- symbol: C  # 5
  coordinates: [  0.561614372156708,  0.439930039386100,  0.500000000000000 ]
  mass: 12.010700
- symbol: C  # 6
  coordinates: [  0.498322932261101,  0.408004224203383,  0.500000000000000 ]
  mass: 12.010700
- symbol: C  # 7
  coordinates: [  0.502925048591389,  0.610994858468548,  0.500000000000000 ]
  mass: 12.010700
- symbol: H  # 8
  coordinates: [  0.556187782481192,  0.631756537102766,  0.500000000000000 ]
  mass: 1.007940
- symbol: H  # 9
  coordinates: [  0.389901420405873,  0.536308079243919,  0.500000000000000 ]
  mass: 1.007940
- symbol: H  # 10
  coordinates: [  0.387100358216971,  0.416890517558062,  0.500000000000000 ]
  mass: 1.007940
- symbol: H  # 11
  coordinates: [  0.611889902316517,  0.531850276310429,  0.500000000000000 ]
  mass: 1.007940
- symbol: H  # 12
  coordinates: [  0.497242017417332,  0.356147169250707,  0.500000000000000 ]
  mass: 1.007940
- symbol: H  # 13
  coordinates: [  0.609755292245300,  0.413053891170729,  0.500000000000000 ]
  mass: 1.007940
- symbol: O  # 14
  coordinates: [  0.452103174362852,  0.645664283385803,  0.500000000000000 ]
  mass: 15.999400
phonon:
- q-position: [    0.0000000,    0.0000000,    0.0000000 ]
  weight: 1    
  band:
  - # 1
    frequency:    -0.3812526218
    eigenvector:
    - # atom 1
      - [  0.00000000000318,  0.00000000000000 ]
      - [  0.00000000000004,  0.00000000000000 ]
      - [ -0.38698186067925,  0.00000000000000 ]
    - # atom 2
      - [  0.00000000000328,  0.00000000000000 ]
      - [  0.00000000000003,  0.00000000000000 ]
      - [ -0.46923151922386,  0.00000000000000 ]
    - # atom 3
      - [  0.00000000000313,  0.00000000000000 ]
      - [  0.00000000000013,  0.00000000000000 ]
      - [  0.07782055085075,  0.00000000000000 ]
    - # atom 4
      - [  0.00000000000318,  0.00000000000000 ]
      - [  0.00000000000022,  0.00000000000000 ]
      - [  0.45567036388886,  0.00000000000000 ]
    - # atom 5
      - [  0.00000000000329,  0.00000000000000 ]
      - [  0.00000000000022,  0.00000000000000 ]
      - [  0.37223145467676,  0.00000000000000 ]
    - # atom 6
      - [  0.00000000000334,  0.00000000000000 ]
      - [  0.00000000000013,  0.00000000000000 ]
      - [ -0.08965546651362,  0.00000000000000 ]
    - # atom 7
      - [  0.00000000000301,  0.00000000000000 ]
      - [  0.00000000000013,  0.00000000000000 ]
      - [  0.17586548508748,  0.00000000000000 ]
    - # atom 8
      - [  0.00000000000086,  0.00000000000000 ]
      - [  0.00000000000006,  0.00000000000000 ]
      - [  0.16270308899863,  0.00000000000000 ]
    - # atom 9
      - [  0.00000000000091,  0.00000000000000 ]
      - [ -0.00000000000001,  0.00000000000000 ]
      - [ -0.19570663287922,  0.00000000000000 ]
    - # atom 10
      - [  0.00000000000096,  0.00000000000000 ]
      - [ -0.00000000000001,  0.00000000000000 ]
      - [ -0.24023307641746,  0.00000000000000 ]
    - # atom 11
      - [  0.00000000000091,  0.00000000000000 ]
      - [  0.00000000000008,  0.00000000000000 ]
      - [  0.23638360190612,  0.00000000000000 ]
    - # atom 12
      - [  0.00000000000099,  0.00000000000000 ]
      - [  0.00000000000004,  0.00000000000000 ]
      - [ -0.04494639170573,  0.00000000000000 ]
    - # atom 13
      - [  0.00000000000096,  0.00000000000000 ]
      - [  0.00000000000008,  0.00000000000000 ]
      - [  0.19310864293352,  0.00000000000000 ]
    - # atom 14
      - [  0.00000000000341,  0.00000000000000 ]
      - [  0.00000000000006,  0.00000000000000 ]
      - [ -0.14552879151030,  0.00000000000000 ]
  - # 2
    frequency:    -0.1051818790
    eigenvector:
    - # atom 1
      - [ -0.00000000000383,  0.00000000000000 ]
      - [ -0.00000000000625,  0.00000000000000 ]
      - [  0.00125146194931,  0.00000000000000 ]
    - # atom 2
      - [ -0.00000000001064,  0.00000000000000 ]
      - [ -0.00000000000614,  0.00000000000000 ]
      - [  0.26379277371223,  0.00000000000000 ]
    - # atom 3
      - [ -0.00000000000050,  0.00000000000000 ]
      - [ -0.00000000001227,  0.00000000000000 ]
      - [ -0.09338129228944,  0.00000000000000 ]
    - # atom 4
      - [ -0.00000000000405,  0.00000000000000 ]
      - [ -0.00000000001815,  0.00000000000000 ]
      - [  0.07746699650575,  0.00000000000000 ]
    - # atom 5
      - [ -0.00000000001088,  0.00000000000000 ]
      - [ -0.00000000001804,  0.00000000000000 ]
      - [  0.34011293110617,  0.00000000000000 ]
    - # atom 6
      - [ -0.00000000001417,  0.00000000000000 ]
      - [ -0.00000000001203,  0.00000000000000 ]
      - [  0.43313653769737,  0.00000000000000 ]
    - # atom 7
      - [  0.00000000000673,  0.00000000000000 ]
      - [ -0.00000000001247,  0.00000000000000 ]
      - [ -0.37254955869117,  0.00000000000000 ]
    - # atom 8
      - [  0.00000000000257,  0.00000000000000 ]
      - [ -0.00000000000508,  0.00000000000000 ]
      - [ -0.12187656633252,  0.00000000000000 ]
    - # atom 9
      - [ -0.00000000000028,  0.00000000000000 ]
      - [ -0.00000000000051,  0.00000000000000 ]
      - [ -0.03918932371594,  0.00000000000000 ]
    - # atom 10
      - [ -0.00000000000384,  0.00000000000000 ]
      - [ -0.00000000000043,  0.00000000000000 ]
      - [  0.09804951722380,  0.00000000000000 ]
    - # atom 11
      - [ -0.00000000000041,  0.00000000000000 ]
      - [ -0.00000000000661,  0.00000000000000 ]
      - [  0.00063767440629,  0.00000000000000 ]
    - # atom 12
      - [ -0.00000000000565,  0.00000000000000 ]
      - [ -0.00000000000346,  0.00000000000000 ]
      - [  0.18503455301133,  0.00000000000000 ]
    - # atom 13
      - [ -0.00000000000395,  0.00000000000000 ]
      - [ -0.00000000000655,  0.00000000000000 ]
      - [  0.13693861099292,  0.00000000000000 ]
    - # atom 14
      - [  0.00000000001188,  0.00000000000000 ]
      - [ -0.00000000000884,  0.00000000000000 ]
      - [ -0.62818753668653,  0.00000000000000 ]
  - # 3
    frequency:    -0.0426251515
    eigenvector:
    - # atom 1
      - [  0.02691834790814,  0.00000000000000 ]
      - [ -0.18288637649148,  0.00000000000000 ]
      - [ -0.00000000060266,  0.00000000000000 ]
    - # atom 2
      - [  0.26154549880142,  0.00000000000000 ]
      - [ -0.18649326223191,  0.00000000000000 ]
      - [ -0.00000000059501,  0.00000000000000 ]
    - # atom 3
      - [ -0.08797858714583,  0.00000000000000 ]
      - [  0.02454759719278,  0.00000000000000 ]
      - [ -0.00000000060562,  0.00000000000000 ]
    - # atom 4
      - [  0.03433659289859,  0.00000000000000 ]
      - [  0.22716256608693,  0.00000000000000 ]
      - [ -0.00000000060084,  0.00000000000000 ]
    - # atom 5
      - [  0.26965848314873,  0.00000000000000 ]
      - [  0.22330702440557,  0.00000000000000 ]
      - [ -0.00000000059319,  0.00000000000000 ]
    - # atom 6
      - [  0.38298951981280,  0.00000000000000 ]
      - [  0.01644422026699,  0.00000000000000 ]
      - [ -0.00000000059028,  0.00000000000000 ]
    - # atom 7
      - [ -0.33713245044923,  0.00000000000000 ]
      - [  0.03155185569557,  0.00000000000000 ]
      - [ -0.00000000061378,  0.00000000000000 ]
    - # atom 8
      - [ -0.11898322854951,  0.00000000000000 ]
      - [  0.05953170562600,  0.00000000000000 ]
      - [ -0.00000000017826,  0.00000000000000 ]
    - # atom 9
      - [ -0.02095795003846,  0.00000000000000 ]
      - [ -0.09793043405695,  0.00000000000000 ]
      - [ -0.00000000017569,  0.00000000000000 ]
    - # atom 10
      - [  0.10181195079671,  0.00000000000000 ]
      - [ -0.10053894477308,  0.00000000000000 ]
      - [ -0.00000000017169,  0.00000000000000 ]
    - # atom 11
      - [ -0.01637839825333,  0.00000000000000 ]
      - [  0.11227539807330,  0.00000000000000 ]
      - [ -0.00000000017474,  0.00000000000000 ]
    - # atom 12
      - [  0.16424244645556,  0.00000000000000 ]
      - [  0.00374162949006,  0.00000000000000 ]
      - [ -0.00000000016926,  0.00000000000000 ]
    - # atom 13
      - [  0.10576008782297,  0.00000000000000 ]
      - [  0.11030369388056,  0.00000000000000 ]
      - [ -0.00000000017077,  0.00000000000000 ]
    - # atom 14
      - [ -0.53091575038218,  0.00000000000000 ]
      - [ -0.15504515338119,  0.00000000000000 ]
      - [ -0.00000000071400,  0.00000000000000 ]
  - # 4
    frequency:    -0.0000015266
    eigenvector:
    - # atom 1
      - [  0.33641981632941,  0.00000000000000 ]
      - [  0.00000000002194,  0.00000000000000 ]
      - [  0.00000000005189,  0.00000000000000 ]
    - # atom 2
      - [  0.33641981631134,  0.00000000000000 ]
      - [  0.00000000002222,  0.00000000000000 ]
      - [  0.00000000005504,  0.00000000000000 ]
    - # atom 3
      - [  0.33641981633826,  0.00000000000000 ]
      - [  0.00000000000596,  0.00000000000000 ]
      - [  0.00000000004666,  0.00000000000000 ]
    - # atom 4
      - [  0.33641981632884,  0.00000000000000 ]
      - [ -0.00000000000964,  0.00000000000000 ]
      - [  0.00000000004466,  0.00000000000000 ]
    - # atom 5
      - [  0.33641981631071,  0.00000000000000 ]
      - [ -0.00000000000935,  0.00000000000000 ]
      - [  0.00000000004782,  0.00000000000000 ]
    - # atom 6
      - [  0.33641981630198,  0.00000000000000 ]
      - [  0.00000000000659,  0.00000000000000 ]
      - [  0.00000000005301,  0.00000000000000 ]
    - # atom 7
      - [  0.33641981635744,  0.00000000000000 ]
      - [  0.00000000000542,  0.00000000000000 ]
      - [  0.00000000004321,  0.00000000000000 ]
    - # atom 8
      - [  0.09745738406720,  0.00000000000000 ]
      - [ -0.00000000000231,  0.00000000000000 ]
      - [  0.00000000001134,  0.00000000000000 ]
    - # atom 9
      - [  0.09745738405965,  0.00000000000000 ]
      - [  0.00000000000982,  0.00000000000000 ]
      - [  0.00000000001546,  0.00000000000000 ]
    - # atom 10
      - [  0.09745738405020,  0.00000000000000 ]
      - [  0.00000000001002,  0.00000000000000 ]
      - [  0.00000000001712,  0.00000000000000 ]
    - # atom 11
      - [  0.09745738405930,  0.00000000000000 ]
      - [ -0.00000000000637,  0.00000000000000 ]
      - [  0.00000000001176,  0.00000000000000 ]
    - # atom 12
      - [  0.09745738404539,  0.00000000000000 ]
      - [  0.00000000000199,  0.00000000000000 ]
      - [  0.00000000001608,  0.00000000000000 ]
    - # atom 13
      - [  0.09745738404989,  0.00000000000000 ]
      - [ -0.00000000000622,  0.00000000000000 ]
      - [  0.00000000001340,  0.00000000000000 ]
    - # atom 14
      - [  0.38828378802571,  0.00000000000000 ]
      - [  0.00000000002099,  0.00000000000000 ]
      - [  0.00000000005134,  0.00000000000000 ]
  - # 5
    frequency:    -0.0000006872
    eigenvector:
    - # atom 1
      - [  0.00000000000000,  0.00000000000000 ]
      - [ -0.22455212986344,  0.00000000000000 ]
      - [  0.25050875012191,  0.00000000000000 ]
    - # atom 2
      - [  0.00000000026742,  0.00000000000000 ]
      - [ -0.22455212986755,  0.00000000000000 ]
      - [  0.25050875011523,  0.00000000000000 ]
    - # atom 3
      - [ -0.00000000013096,  0.00000000000000 ]
      - [ -0.22455212962701,  0.00000000000000 ]
      - [  0.25050875012488,  0.00000000000000 ]
    - # atom 4
      - [  0.00000000000846,  0.00000000000000 ]
      - [ -0.22455212939608,  0.00000000000000 ]
      - [  0.25050875012109,  0.00000000000000 ]
    - # atom 5
      - [  0.00000000027667,  0.00000000000000 ]
      - [ -0.22455212940048,  0.00000000000000 ]
      - [  0.25050875011441,  0.00000000000000 ]
    - # atom 6
      - [  0.00000000040584,  0.00000000000000 ]
      - [ -0.22455212963625,  0.00000000000000 ]
      - [  0.25050875011149,  0.00000000000000 ]
    - # atom 7
      - [ -0.00000000041493,  0.00000000000000 ]
      - [ -0.22455212961903,  0.00000000000000 ]
      - [  0.25050875013201,  0.00000000000000 ]
    - # atom 8
      - [ -0.00000000014450,  0.00000000000000 ]
      - [ -0.06505045795652,  0.00000000000000 ]
      - [  0.07256982581438,  0.00000000000000 ]
    - # atom 9
      - [ -0.00000000003278,  0.00000000000000 ]
      - [ -0.06505045813599,  0.00000000000000 ]
      - [  0.07256982581184,  0.00000000000000 ]
    - # atom 10
      - [  0.00000000010715,  0.00000000000000 ]
      - [ -0.06505045813896,  0.00000000000000 ]
      - [  0.07256982580835,  0.00000000000000 ]
    - # atom 11
      - [ -0.00000000002756,  0.00000000000000 ]
      - [ -0.06505045789640,  0.00000000000000 ]
      - [  0.07256982581140,  0.00000000000000 ]
    - # atom 12
      - [  0.00000000017831,  0.00000000000000 ]
      - [ -0.06505045802011,  0.00000000000000 ]
      - [  0.07256982580642,  0.00000000000000 ]
    - # atom 13
      - [  0.00000000011165,  0.00000000000000 ]
      - [ -0.06505045789865,  0.00000000000000 ]
      - [  0.07256982580793,  0.00000000000000 ]
    - # atom 14
      - [ -0.00000000064053,  0.00000000000000 ]
      - [ -0.25917008252583,  0.00000000000000 ]
      - [  0.28912829061855,  0.00000000000000 ]
  - # 6
    frequency:     0.0000010796
    eigenvector:
    - # atom 1
      - [  0.00000000000000,  0.00000000000000 ]
      - [  0.25050874986397,  0.00000000000000 ]
      - [  0.22455212965474,  0.00000000000000 ]
    - # atom 2
      - [  0.00000000033160,  0.00000000000000 ]
      - [  0.25050874985887,  0.00000000000000 ]
      - [  0.22455212966092,  0.00000000000000 ]
    - # atom 3
      - [ -0.00000000016239,  0.00000000000000 ]
      - [  0.25050875015714,  0.00000000000000 ]
      - [  0.22455212965282,  0.00000000000000 ]
    - # atom 4
      - [  0.00000000001048,  0.00000000000000 ]
      - [  0.25050875044350,  0.00000000000000 ]
      - [  0.22455212965713,  0.00000000000000 ]
    - # atom 5
      - [  0.00000000034307,  0.00000000000000 ]
      - [  0.25050875043805,  0.00000000000000 ]
      - [  0.22455212966331,  0.00000000000000 ]
    - # atom 6
      - [  0.00000000050324,  0.00000000000000 ]
      - [  0.25050875014569,  0.00000000000000 ]
      - [  0.22455212966520,  0.00000000000000 ]
    - # atom 7
      - [ -0.00000000051452,  0.00000000000000 ]
      - [  0.25050875016704,  0.00000000000000 ]
      - [  0.22455212964630,  0.00000000000000 ]
    - # atom 8
      - [ -0.00000000017918,  0.00000000000000 ]
      - [  0.07256982589525,  0.00000000000000 ]
      - [  0.06505045802160,  0.00000000000000 ]
    - # atom 9
      - [ -0.00000000004064,  0.00000000000000 ]
      - [  0.07256982567271,  0.00000000000000 ]
      - [  0.06505045802330,  0.00000000000000 ]
    - # atom 10
      - [  0.00000000013287,  0.00000000000000 ]
      - [  0.07256982566902,  0.00000000000000 ]
      - [  0.06505045802653,  0.00000000000000 ]
    - # atom 11
      - [ -0.00000000003417,  0.00000000000000 ]
      - [  0.07256982596980,  0.00000000000000 ]
      - [  0.06505045802455,  0.00000000000000 ]
    - # atom 12
      - [  0.00000000022111,  0.00000000000000 ]
      - [  0.07256982581640,  0.00000000000000 ]
      - [  0.06505045802873,  0.00000000000000 ]
    - # atom 13
      - [  0.00000000013845,  0.00000000000000 ]
      - [  0.07256982596701,  0.00000000000000 ]
      - [  0.06505045802775,  0.00000000000000 ]
    - # atom 14
      - [ -0.00000000079426,  0.00000000000000 ]
      - [  0.28912829038386,  0.00000000000000 ]
      - [  0.25917008233416,  0.00000000000000 ]
  - # 7
    frequency:     3.3028966828
    eigenvector:
    - # atom 1
      - [  0.00000000000000,  0.00000000000000 ]
      - [ -0.00000000000001,  0.00000000000000 ]
      - [ -0.35429015232882,  0.00000000000000 ]
    - # atom 2
      - [  0.00000000000001,  0.00000000000000 ]
      - [ -0.00000000000001,  0.00000000000000 ]
      - [ -0.06959988684705,  0.00000000000000 ]
    - # atom 3
      - [  0.00000000000000,  0.00000000000000 ]
      - [ -0.00000000000000,  0.00000000000000 ]
      - [ -0.35538011037885,  0.00000000000000 ]
    - # atom 4
      - [  0.00000000000001,  0.00000000000000 ]
      - [ -0.00000000000000,  0.00000000000000 ]
      - [ -0.15367138052513,  0.00000000000000 ]
    - # atom 5
      - [  0.00000000000001,  0.00000000000000 ]
      - [ -0.00000000000000,  0.00000000000000 ]
      - [  0.23309630710709,  0.00000000000000 ]
    - # atom 6
      - [  0.00000000000001,  0.00000000000000 ]
      - [ -0.00000000000000,  0.00000000000000 ]
      - [  0.28949797231051,  0.00000000000000 ]
    - # atom 7
      - [ -0.00000000000001,  0.00000000000000 ]
      - [ -0.00000000000000,  0.00000000000000 ]
      - [ -0.25495160289089,  0.00000000000000 ]
    - # atom 8
      - [ -0.00000000000000,  0.00000000000000 ]
      - [  0.00000000000000,  0.00000000000000 ]
      - [ -0.24511677950923,  0.00000000000000 ]
    - # atom 9
      - [  0.00000000000000,  0.00000000000000 ]
      - [ -0.00000000000000,  0.00000000000000 ]
      - [ -0.15094545367093,  0.00000000000000 ]
    - # atom 10
      - [  0.00000000000000,  0.00000000000000 ]
      - [ -0.00000000000000,  0.00000000000000 ]
      - [ -0.02226486819575,  0.00000000000000 ]
    - # atom 11
      - [  0.00000000000000,  0.00000000000000 ]
      - [  0.00000000000000,  0.00000000000000 ]
      - [ -0.05615750879344,  0.00000000000000 ]
    - # atom 12
      - [  0.00000000000000,  0.00000000000000 ]
      - [ -0.00000000000000,  0.00000000000000 ]
      - [  0.17226648427594,  0.00000000000000 ]
    - # atom 13
      - [  0.00000000000000,  0.00000000000000 ]
      - [ -0.00000000000000,  0.00000000000000 ]
      - [  0.14318008017457,  0.00000000000000 ]
    - # atom 14
      - [ -0.00000000000002,  0.00000000000000 ]
      - [ -0.00000000000002,  0.00000000000000 ]
      - [  0.61635112622488,  0.00000000000000 ]
  - # 8
    frequency:     6.4040268961
    eigenvector:
    - # atom 1
      - [ -0.23405915239933,  0.00000000000000 ]
      - [ -0.25752759661983,  0.00000000000000 ]
      - [ -0.00000000000022,  0.00000000000000 ]
    - # atom 2
      - [  0.05121736810783,  0.00000000000000 ]
      - [ -0.28566431565063,  0.00000000000000 ]
      - [  0.00000000000006,  0.00000000000000 ]
    - # atom 3
      - [ -0.33573659685453,  0.00000000000000 ]
      - [ -0.04836800593179,  0.00000000000000 ]
      - [ -0.00000000000016,  0.00000000000000 ]
    - # atom 4
      - [ -0.24200906427776,  0.00000000000000 ]
      - [  0.10971193496209,  0.00000000000000 ]
      - [ -0.00000000000020,  0.00000000000000 ]
    - # atom 5
      - [  0.04922447576835,  0.00000000000000 ]
      - [  0.11880722438986,  0.00000000000000 ]
      - [ -0.00000000000007,  0.00000000000000 ]
    - # atom 6
      - [  0.17294093270984,  0.00000000000000 ]
      - [ -0.09367777405236,  0.00000000000000 ]
      - [  0.00000000000022,  0.00000000000000 ]
    - # atom 7
      - [  0.01888983656685,  0.00000000000000 ]
      - [ -0.03988793993069,  0.00000000000000 ]
      - [  0.00000000000035,  0.00000000000000 ]
    - # atom 8
      - [  0.06257070502555,  0.00000000000000 ]
      - [ -0.14043795824971,  0.00000000000000 ]
      - [  0.00000000000036,  0.00000000000000 ]
    - # atom 9
      - [ -0.10821944289309,  0.00000000000000 ]
      - [ -0.13682580788002,  0.00000000000000 ]
      - [ -0.00000000000008,  0.00000000000000 ]
    - # atom 10
      - [  0.04375857473417,  0.00000000000000 ]
      - [ -0.13472671218490,  0.00000000000000 ]
      - [  0.00000000000006,  0.00000000000000 ]
    - # atom 11
      - [ -0.10003833076018,  0.00000000000000 ]
      - [  0.08493471060172,  0.00000000000000 ]
      - [ -0.00000000000006,  0.00000000000000 ]
    - # atom 12
      - [  0.10159966424551,  0.00000000000000 ]
      - [ -0.02809314444270,  0.00000000000000 ]
      - [  0.00000000000016,  0.00000000000000 ]
    - # atom 13
      - [  0.04735767115001,  0.00000000000000 ]
      - [  0.08926925902136,  0.00000000000000 ]
      - [ -0.00000000000002,  0.00000000000000 ]
    - # atom 14
      - [  0.43833305646104,  0.00000000000000 ]
      - [  0.49700811576474,  0.00000000000000 ]
      - [ -0.00000000000009,  0.00000000000000 ]
  - # 9
    frequency:     6.7530442094
    eigenvector:
    - # atom 1
      - [  0.00000000000016,  0.00000000000000 ]
      - [  0.00000000000017,  0.00000000000000 ]
      - [ -0.30439632524369,  0.00000000000000 ]
    - # atom 2
      - [ -0.00000000000003,  0.00000000000000 ]
      - [  0.00000000000019,  0.00000000000000 ]
      - [  0.10230021869313,  0.00000000000000 ]
    - # atom 3
      - [  0.00000000000023,  0.00000000000000 ]
      - [  0.00000000000003,  0.00000000000000 ]
      - [ -0.23114684395730,  0.00000000000000 ]
    - # atom 4
      - [  0.00000000000017,  0.00000000000000 ]
      - [ -0.00000000000007,  0.00000000000000 ]
      - [ -0.29579219726666,  0.00000000000000 ]
    - # atom 5
      - [ -0.00000000000003,  0.00000000000000 ]
      - [ -0.00000000000008,  0.00000000000000 ]
      - [ -0.11676577994198,  0.00000000000000 ]
    - # atom 6
      - [ -0.00000000000011,  0.00000000000000 ]
      - [  0.00000000000006,  0.00000000000000 ]
      - [  0.31306788052012,  0.00000000000000 ]
    - # atom 7
      - [ -0.00000000000002,  0.00000000000000 ]
      - [  0.00000000000003,  0.00000000000000 ]
      - [  0.51032210613603,  0.00000000000000 ]
    - # atom 8
      - [ -0.00000000000004,  0.00000000000000 ]
      - [  0.00000000000010,  0.00000000000000 ]
      - [  0.53432221627468,  0.00000000000000 ]
    - # atom 9
      - [  0.00000000000007,  0.00000000000000 ]
      - [  0.00000000000009,  0.00000000000000 ]
      - [ -0.10791137482685,  0.00000000000000 ]
    - # atom 10
      - [ -0.00000000000003,  0.00000000000000 ]
      - [  0.00000000000009,  0.00000000000000 ]
      - [  0.09753778200602,  0.00000000000000 ]
    - # atom 11
      - [  0.00000000000007,  0.00000000000000 ]
      - [ -0.00000000000006,  0.00000000000000 ]
      - [ -0.09488897873735,  0.00000000000000 ]
    - # atom 12
      - [ -0.00000000000007,  0.00000000000000 ]
      - [  0.00000000000002,  0.00000000000000 ]
      - [  0.22086630546040,  0.00000000000000 ]
    - # atom 13
      - [ -0.00000000000003,  0.00000000000000 ]
      - [ -0.00000000000006,  0.00000000000000 ]
      - [ -0.03665514824556,  0.00000000000000 ]
    - # atom 14
      - [ -0.00000000000031,  0.00000000000000 ]
      - [ -0.00000000000035,  0.00000000000000 ]
      - [ -0.13451059512720,  0.00000000000000 ]
  - # 10
    frequency:    11.9433242821
    eigenvector:
    - # atom 1
      - [  0.00000000000003,  0.00000000000000 ]
      - [ -0.00000000000001,  0.00000000000000 ]
      - [ -0.38571708765848,  0.00000000000000 ]
    - # atom 2
      - [  0.00000000000002,  0.00000000000000 ]
      - [ -0.00000000000002,  0.00000000000000 ]
      - [  0.44583712431418,  0.00000000000000 ]
    - # atom 3
      - [  0.00000000000002,  0.00000000000000 ]
      - [  0.00000000000002,  0.00000000000000 ]
      - [ -0.07133112799936,  0.00000000000000 ]
    - # atom 4
      - [  0.00000000000000,  0.00000000000000 ]
      - [ -0.00000000000003,  0.00000000000000 ]
      - [  0.45880525215514,  0.00000000000000 ]
    - # atom 5
      - [ -0.00000000000001,  0.00000000000000 ]
      - [ -0.00000000000004,  0.00000000000000 ]
      - [ -0.35220513584310,  0.00000000000000 ]
    - # atom 6
      - [ -0.00000000000000,  0.00000000000000 ]
      - [ -0.00000000000005,  0.00000000000000 ]
      - [ -0.07917331128240,  0.00000000000000 ]
    - # atom 7
      - [ -0.00000000000002,  0.00000000000000 ]
      - [  0.00000000000005,  0.00000000000000 ]
      - [ -0.08921885781170,  0.00000000000000 ]
    - # atom 8
      - [ -0.00000000000001,  0.00000000000000 ]
      - [  0.00000000000002,  0.00000000000000 ]
      - [ -0.04886001168916,  0.00000000000000 ]
    - # atom 9
      - [  0.00000000000001,  0.00000000000000 ]
      - [ -0.00000000000001,  0.00000000000000 ]
      - [ -0.25026438418046,  0.00000000000000 ]
    - # atom 10
      - [ -0.00000000000000,  0.00000000000000 ]
      - [  0.00000000000000,  0.00000000000000 ]
      - [  0.28091429408973,  0.00000000000000 ]
    - # atom 11
      - [  0.00000000000001,  0.00000000000000 ]
      - [ -0.00000000000002,  0.00000000000000 ]
      - [  0.30848080959347,  0.00000000000000 ]
    - # atom 12
      - [ -0.00000000000000,  0.00000000000000 ]
      - [ -0.00000000000001,  0.00000000000000 ]
      - [ -0.06120205747553,  0.00000000000000 ]
    - # atom 13
      - [ -0.00000000000000,  0.00000000000000 ]
      - [ -0.00000000000001,  0.00000000000000 ]
      - [ -0.22757893178021,  0.00000000000000 ]
    - # atom 14
      - [ -0.00000000000002,  0.00000000000000 ]
      - [  0.00000000000006,  0.00000000000000 ]
      - [  0.06287803153324,  0.00000000000000 ]
  - # 11
    frequency:    12.9072401395
    eigenvector:
    - # atom 1
      - [  0.27171730274055,  0.00000000000000 ]
      - [ -0.09200344919651,  0.00000000000000 ]
      - [  0.00000000000005,  0.00000000000000 ]
    - # atom 2
      - [  0.11993304923622,  0.00000000000000 ]
      - [ -0.13233156900702,  0.00000000000000 ]
      - [ -0.00000000000006,  0.00000000000000 ]
    - # atom 3
      - [  0.14615533299324,  0.00000000000000 ]
      - [  0.15088945921326,  0.00000000000000 ]
      - [  0.00000000000001,  0.00000000000000 ]
    - # atom 4
      - [  0.02977361944892,  0.00000000000000 ]
      - [ -0.20565477742536,  0.00000000000000 ]
      - [ -0.00000000000006,  0.00000000000000 ]
    - # atom 5
      - [ -0.09678576627275,  0.00000000000000 ]
      - [ -0.27877767725879,  0.00000000000000 ]
      - [  0.00000000000005,  0.00000000000000 ]
    - # atom 6
      - [ -0.05001085077020,  0.00000000000000 ]
      - [ -0.37188887366103,  0.00000000000000 ]
      - [  0.00000000000001,  0.00000000000000 ]
    - # atom 7
      - [ -0.17749176973076,  0.00000000000000 ]
      - [  0.39593277990727,  0.00000000000000 ]
      - [  0.00000000000001,  0.00000000000000 ]
    - # atom 8
      - [ -0.06425179095346,  0.00000000000000 ]
      - [  0.14236033044843,  0.00000000000000 ]
      - [  0.00000000000001,  0.00000000000000 ]
    - # atom 9
      - [  0.05582169031905,  0.00000000000000 ]
      - [ -0.06031997729063,  0.00000000000000 ]
      - [  0.00000000000003,  0.00000000000000 ]
    - # atom 10
      - [ -0.00319264302392,  0.00000000000000 ]
      - [  0.02885007807092,  0.00000000000000 ]
      - [ -0.00000000000004,  0.00000000000000 ]
    - # atom 11
      - [  0.05790587532152,  0.00000000000000 ]
      - [ -0.14439837159371,  0.00000000000000 ]
      - [ -0.00000000000004,  0.00000000000000 ]
    - # atom 12
      - [ -0.03543982158133,  0.00000000000000 ]
      - [ -0.10734384238909,  0.00000000000000 ]
      - [  0.00000000000001,  0.00000000000000 ]
    - # atom 13
      - [ -0.01865541828827,  0.00000000000000 ]
      - [ -0.06702502684722,  0.00000000000000 ]
      - [  0.00000000000003,  0.00000000000000 ]
    - # atom 14
      - [ -0.20883318003148,  0.00000000000000 ]
      - [  0.51470473047497,  0.00000000000000 ]
      - [ -0.00000000000001,  0.00000000000000 ]
  - # 12
    frequency:    13.3177296853
    eigenvector:
    - # atom 1
      - [  0.00000000000000,  0.00000000000000 ]
      - [ -0.00000000000000,  0.00000000000000 ]
      - [ -0.15490008501848,  0.00000000000000 ]
    - # atom 2
      - [ -0.00000000000000,  0.00000000000000 ]
      - [ -0.00000000000000,  0.00000000000000 ]
      - [ -0.21308604046014,  0.00000000000000 ]
    - # atom 3
      - [  0.00000000000000,  0.00000000000000 ]
      - [ -0.00000000000001,  0.00000000000000 ]
      - [  0.60780392665322,  0.00000000000000 ]
    - # atom 4
      - [  0.00000000000000,  0.00000000000000 ]
      - [ -0.00000000000000,  0.00000000000000 ]
      - [ -0.03368991700623,  0.00000000000000 ]
    - # atom 5
      - [  0.00000000000000,  0.00000000000000 ]
      - [  0.00000000000000,  0.00000000000000 ]
      - [ -0.31881175596237,  0.00000000000000 ]
    - # atom 6
      - [ -0.00000000000000,  0.00000000000000 ]
      - [  0.00000000000000,  0.00000000000000 ]
      - [  0.40843265550801,  0.00000000000000 ]
    - # atom 7
      - [ -0.00000000000001,  0.00000000000000 ]
      - [ -0.00000000000000,  0.00000000000000 ]
      - [ -0.02077914404889,  0.00000000000000 ]
    - # atom 8
      - [ -0.00000000000000,  0.00000000000000 ]
      - [  0.00000000000000,  0.00000000000000 ]
      - [ -0.24132165139840,  0.00000000000000 ]
    - # atom 9
      - [  0.00000000000000,  0.00000000000000 ]
      - [  0.00000000000000,  0.00000000000000 ]
      - [ -0.22827760981164,  0.00000000000000 ]
    - # atom 10
      - [ -0.00000000000000,  0.00000000000000 ]
      - [ -0.00000000000000,  0.00000000000000 ]
      - [ -0.20920295072534,  0.00000000000000 ]
    - # atom 11
      - [  0.00000000000000,  0.00000000000000 ]
      - [ -0.00000000000000,  0.00000000000000 ]
      - [ -0.13519305426705,  0.00000000000000 ]
    - # atom 12
      - [ -0.00000000000000,  0.00000000000000 ]
      - [  0.00000000000000,  0.00000000000000 ]
      - [  0.22485873918401,  0.00000000000000 ]
    - # atom 13
      - [ -0.00000000000000,  0.00000000000000 ]
      - [ -0.00000000000000,  0.00000000000000 ]
      - [ -0.25993657870455,  0.00000000000000 ]
    - # atom 14