# epsilon and Z* of atoms 1 4
   2.45541850  -0.00000000   0.00000000   0.00000000   2.45541850   0.00000000   0.00000000   0.00000000   2.48847481
   2.98445122  -0.00000000  -0.00000000   0.00000000   3.63555010  -0.32310358   0.00000000   0.28350654   3.43530030
  -1.31085399  -0.49969755  -0.31485239  -0.44227880  -1.99918350  -0.68792581  -0.24653924  -0.73216690  -1.71720863
