# epsilon and Z* of atoms 1 4
   2.51230980  -0.00000000   0.00000000   0.00000000   2.51230980   0.00000000   0.00000000   0.00000000   2.54549300
   2.98579288  -0.00000000  -0.00000000   0.00000000   3.62205561  -0.31310308   0.00000000   0.26997250   3.42866103
  -1.31464967  -0.49127954  -0.30663782  -0.43525472  -1.98967864  -0.67587581  -0.24115643  -0.71793878  -1.71451337
