15   
90   

1    
  0.0100000000000000   0.0000000000000000   0.0000000000000000
  -0.6529524600    0.0185232900    0.0013151200
   0.1179171000   -0.0266072400   -0.0005300700
   0.2606956600    0.1126314200   -0.0009300600
   0.0572586900   -0.0169729700    0.0002951400
   0.0157080200    0.0167053600   -0.0004241900
  -0.0265056900   -0.0246069300   -0.0006697400
  -0.0056071700    0.0065378200   -0.0024234200
  -0.0012930800    0.0068715800    0.0004502500
  -0.0051229300    0.0039187000    0.0009508100
  -0.0055174000    0.0049053100   -0.0009349900
   0.2433312900   -0.1048288300    0.0019354900
  -0.0072779200    0.0250336200    0.0002485800
   0.0010116000   -0.0066718900    0.0001093000
   0.0044054500   -0.0080062100    0.0013605100
   0.0039488400   -0.0074330100   -0.0007527300

1    
 -0.0100000000000000   0.0000000000000000   0.0000000000000000
   0.6489235700   -0.0363286100   -0.0006499000
  -0.1080262700    0.0211116700   -0.0001509500
  -0.2472063200   -0.1049066000    0.0010551000
  -0.0493764800    0.0197788100    0.0004081200
  -0.0126044000   -0.0294660000   -0.0000900900
   0.0277304400    0.0281587200   -0.0008722400
  -0.0032426100   -0.0021408300   -0.0028988500
   0.0002456200    0.0111450600    0.0001853100
  -0.0045555700    0.0073237200    0.0004062100
  -0.0058908000    0.0078450700    0.0003498500
  -0.2391756500    0.1175537100    0.0013879500
  -0.0029603600   -0.0288568200    0.0002247800
  -0.0071123100   -0.0003669200    0.0001420500
  -0.0012280100   -0.0016342600    0.0012274600
   0.0044791500   -0.0092167200   -0.0007248000

1    
  0.0000000000000000   0.0100000000000000   0.0000000000000000
   0.0261783900   -0.6298953800    0.0013212900
   0.0346723600    0.3008651400   -0.0010949300
   0.0544747000    0.1551597200   -0.0000233400
   0.0195859900   -0.0490236200    0.0009314500
   0.0262057000    0.0340325200   -0.0005358800
  -0.0628885600    0.0301821800   -0.0006483200
   0.0229018300    0.0233771900   -0.0030607600
   0.0014975300    0.0074002500    0.0004125800
  -0.0039301400    0.0096684900    0.0008363700
  -0.0041145100    0.0076359800   -0.0006690700
  -0.1048695000    0.1184192500    0.0015215600
  -0.0072625500    0.0078199600    0.0002695300
  -0.0051418300   -0.0041704000    0.0001661100
  -0.0023803700   -0.0038951400    0.0013691000
   0.0050709400   -0.0075761400   -0.0007956800

1    
  0.0000000000000000  -0.0100000000000000   0.0000000000000000
  -0.0286494000    0.6530223800   -0.0008150900
  -0.0253424800   -0.3302191200    0.0005104800
  -0.0489923400   -0.1557142000    0.0001801400
  -0.0129808000    0.0523864800   -0.0002218300
  -0.0235515400   -0.0471982000    0.0000259300
   0.0651985200   -0.0271202100   -0.0008948500
  -0.0314393700   -0.0185802800   -0.0021890700
  -0.0025214900    0.0107389500    0.0002135700
  -0.0057781000    0.0016107100    0.0004885500
  -0.0073036500    0.0051821800    0.0000898800
   0.1164926200   -0.1145786000    0.0017906100
  -0.0030495400   -0.0118321400    0.0002021500
  -0.0009332600   -0.0028703000    0.0000823800
   0.0055037300   -0.0057250300    0.0012189300
   0.0033470800   -0.0091026300   -0.0006817700

1    
  0.0000000000000000   0.0000000000000000   0.0100000000000000
  -0.0005743400    0.0023036200   -0.1218068700
   0.0046619300   -0.0031887500    0.0571093500
   0.0000143800   -0.0017893800    0.0612770900
   0.0028128800    0.0023779100   -0.0073383300
   0.0010958300   -0.0070781400    0.0056086600
   0.0014088600    0.0017529700   -0.0084287000
  -0.0034131200    0.0022516600   -0.0075110600
  -0.0008233600    0.0093897900    0.0001666600
  -0.0052417900    0.0051460100    0.0006434200
  -0.0061440200    0.0063647800   -0.0001957500
   0.0087302200    0.0010702900    0.0345008800
  -0.0051280000   -0.0019103900   -0.0027378200
  -0.0030748000   -0.0035113200   -0.0065752100
   0.0014561300   -0.0048275300   -0.0049730600
   0.0042192000   -0.0083515100    0.0002607300

1    
  0.0000000000000000   0.0000000000000000  -0.0100000000000000
  -0.0025396600    0.0001714400    0.1223527900
   0.0056531300   -0.0027925100   -0.0577984200
   0.0000582000   -0.0005537400   -0.0610422800
   0.0041169900    0.0008150100    0.0080487900
   0.0017274300   -0.0058232400   -0.0061227100
   0.0000308000    0.0017963300    0.0068863400
  -0.0055108000    0.0019973600    0.0021953600
  -0.0002193300    0.0086859600    0.0004736900
  -0.0044608600    0.0060965300    0.0007193700
  -0.0052667000    0.0064140800   -0.0003988100
   0.0086297100    0.0016016800   -0.0311733000
  -0.0051263700   -0.0017494300    0.0032069800
  -0.0030041800   -0.0035149800    0.0068285600
   0.0016858700   -0.0048199100    0.0075613100
   0.0042257600   -0.0083245700   -0.0017376800

2    
  0.0100000000000000   0.0000000000000000   0.0000000000000000
   0.1116107200    0.0300232000   -0.0002161100
  -0.6635437700   -0.0179613900    0.0015490700
  -0.0258250500    0.0273121000    0.0006667300
   0.0166813900   -0.0226553500    0.0005701200
   0.0563814900    0.0112603000   -0.0007169300
   0.2699298200   -0.1204167700   -0.0014748700
  -0.0006609100    0.0030632600   -0.0029835800
  -0.0006865500    0.0091411600    0.0003065700
  -0.0046295900    0.0065533000    0.0006413500
  -0.0052240800    0.0064552200   -0.0003775700
   0.0050177000   -0.0246496000    0.0017576500
   0.2391782700    0.1031721800   -0.0003995300
  -0.0069495700   -0.0003843500    0.0002077600
   0.0013713300   -0.0055252900    0.0013111400
   0.0073487900   -0.0053879800   -0.0008418000

2    
 -0.0100000000000000   0.0000000000000000   0.0000000000000000
  -0.1143288400   -0.0299744400    0.0007771400
   0.6728854000    0.0306376600   -0.0022360400
   0.0268341100   -0.0287709900   -0.0004705400
  -0.0095757700    0.0256164300    0.0001408700
  -0.0525182000   -0.0239305700    0.0001947500
  -0.2561386600    0.1144267300   -0.0001136300
  -0.0082612600    0.0012454300   -0.0023085600
  -0.0003542700    0.0089449800    0.0003262300
  -0.0050889900    0.0046879600    0.0007197400
  -0.0061886600    0.0063371300   -0.0002169200
   0.0105586000    0.0285623600    0.0015679900
  -0.2616458200   -0.1157226900    0.0009337800
   0.0009330600   -0.0066271000    0.0000436400
   0.0017263200   -0.0041407600    0.0012791200
   0.0011629700   -0.0112921300   -0.0006375600

2    
  0.0000000000000000   0.0100000000000000   0.0000000000000000
  -0.0250431100    0.3275366400    0.0000450500
  -0.0200919900   -0.6462311400    0.0009835800
   0.0672714400    0.0238004200   -0.0005555500
  -0.0194288700    0.0431990800   -0.0000223300
  -0.0188485300   -0.0589086500   -0.0000658600
  -0.0608489300    0.1683252900   -0.0005530400
  -0.0034269800    0.0005638000   -0.0033874000
  -0.0008616200    0.0091668900    0.0001968700
  -0.0049819400    0.0059873000    0.0013530600
  -0.0063784500    0.0069874900   -0.0000666000
   0.0101612500    0.0128637200    0.0016473300
   0.1025418300    0.1110463900   -0.0002762300
  -0.0288425900    0.0075889000    0.0001818500
   0.0006510000   -0.0041547100    0.0012828400
   0.0081274800   -0.0077714200   -0.0007635700

2    
  0.0000000000000000  -0.0100000000000000   0.0000000000000000
   0.0226673900   -0.3035492100    0.0004444600
   0.0285111600    0.6172731200   -0.0015741100
  -0.0652052500   -0.0248589200    0.0007297500
   0.0260916100   -0.0398566300    0.0007286000
   0.0214917600    0.0457564900   -0.0004472500
   0.0669187300   -0.1659470800   -0.0009970400
  -0.0054993200    0.0036970900   -0.0019139900
  -0.0001831400    0.0089260500    0.0004349200
  -0.0047249800    0.0052590300    0.0000091700
  -0.0050393500    0.0058244700   -0.0005092400
   0.0053287300   -0.0087249600    0.0016752800
  -0.1162379200   -0.1144174500    0.0007601400
   0.0231194400   -0.0149777600    0.0000684300
   0.0024404000   -0.0054859900    0.0013063500
   0.0003207400   -0.0089182600   -0.0007154600

2    
  0.0000000000000000   0.0000000000000000   0.0100000000000000
  -0.0012947900   -0.0005369700    0.0577397600
   0.0066053100   -0.0026829000   -0.1242103700
   0.0004663200   -0.0006946800   -0.0056384600
   0.0034633000    0.0015817500    0.0059535800
   0.0011631500   -0.0065857900   -0.0078588900
  -0.0004511500    0.0026664400    0.0575097400
  -0.0036898500    0.0018267700   -0.0097715100
  -0.0008674000    0.0092304400    0.0005120900
  -0.0046231300    0.0067740200    0.0007744200
  -0.0062691700    0.0049295400   -0.0002396500
   0.0077398500    0.0020314300   -0.0009506400
  -0.0049513200   -0.0018084500    0.0335868100
  -0.0030125500   -0.0035511700   -0.0024247800
   0.0015702300   -0.0048144700    0.0023601000
   0.0041512000   -0.0083659400   -0.0073422000

2    
  0.0000000000000000   0.0000000000000000  -0.0100000000000000
  -0.0009127900    0.0010624700   -0.0571680800
   0.0028273800   -0.0052341000    0.1235302400
   0.0007639500   -0.0008135600    0.0058331400
   0.0033443400    0.0015288700   -0.0052428100
   0.0017385900   -0.0064713100    0.0073493200
   0.0006978100    0.0019433400   -0.0590432400
  -0.0052165200    0.0024704900    0.0044794600
  -0.0001680300    0.0088612100    0.0001201600
  -0.0050972600    0.0044761200    0.0005889500
  -0.0051473500    0.0078752200   -0.0003519900
   0.0078105500    0.0017423200    0.0042759700
  -0.0034442600   -0.0008036100   -0.0331404700
  -0.0030611300   -0.0035091800    0.0026755600
   0.0015428900   -0.0048264800    0.0002293400
   0.0043218100   -0.0083018000    0.0058644600

3    
  0.0100000000000000   0.0000000000000000   0.0000000000000000
   0.2463132200    0.0484967000    0.0003089800
  -0.0213129800    0.0623315800   -0.0004913800
  -0.6175459700    0.0052346200    0.0029209000
   0.2570772700   -0.0558341900   -0.0020182600
  -0.0279518900   -0.0713540100    0.0001687900
   0.0586803400    0.0009267700   -0.0010713400
   0.0745135600    0.0052469200   -0.0027370900
  -0.0010242200   -0.0190510500   -0.0012387000
  -0.0038826800    0.0272176500    0.0028405400
  -0.0050977400    0.0143502900   -0.0008753100
   0.0261106200    0.0140251000    0.0014682000
  -0.0070522400   -0.0030119200    0.0001129000
  -0.0017037200   -0.0035148500    0.0001250500
   0.0205211000   -0.0181429500    0.0011741100
   0.0023553400   -0.0069206800   -0.0006873900

3    
 -0.0100000000000000   0.0000000000000000   0.0000000000000000
  -0.2615964200   -0.0551215000    0.0003549100
   0.0313388500   -0.0701407700   -0.0001934700
   0.6197704800    0.0120252600   -0.0026485800
  -0.2381168200    0.0502795100    0.0026366600
   0.0308633100    0.0580993700   -0.0006944200
  -0.0571239300    0.0029031600   -0.0004712200
  -0.0833468600   -0.0017858000   -0.0024131200
  -0.0000890800    0.0372662100    0.0017883300
  -0.0058957600   -0.0159443900   -0.0015799000
  -0.0063883100   -0.0016615400    0.0002503900
  -0.0111771100   -0.0104110000    0.0018648600
  -0.0031731700   -0.0006210200    0.0003583300
  -0.0043978200   -0.0034742800    0.0001289300
  -0.0167603800    0.0083635500    0.0014075500
   0.0060930100   -0.0097767700   -0.0007892600

3    
  0.0000000000000000   0.0100000000000000   0.0000000000000000
   0.1054427900    0.1560982800   -0.0003211400
   0.0329329600    0.0203573200   -0.0002742500
  -0.0031253100   -0.5993355800   -0.0029683700
  -0.1023909500    0.1578209200    0.0010492000
  -0.0244253100    0.0216299200    0.0001300400
  -0.0008413000   -0.0014973100   -0.0004781300
  -0.0053282400    0.2078691900   -0.0039482900
   0.0002152800    0.0213049000    0.0020754300
  -0.0032678200    0.0187336100    0.0027700600
  -0.0042608400    0.0208272700    0.0008733900
  -0.0074136700   -0.0059455700    0.0012429700
  -0.0055245800    0.0032305800    0.0000714200
  -0.0031065900   -0.0040945600    0.0000192700
   0.0162716500   -0.0136490200    0.0006747700
   0.0048219500   -0.0033499400   -0.0009163700

3    
  0.0000000000000000  -0.0100000000000000   0.0000000000000000
  -0.1119453200   -0.1547712400    0.0009156300
  -0.0231584400   -0.0283013100   -0.0003904500
   0.0036574400    0.5863554200    0.0029418100
   0.1138779400   -0.1559088300   -0.0003592200
   0.0276276700   -0.0349938100   -0.0006385500
   0.0023587400    0.0048907600   -0.0010558600
  -0.0034435500   -0.1901008300   -0.0012726100
  -0.0014480400   -0.0028805000   -0.0014431300
  -0.0062457600   -0.0071729500   -0.0014768800
  -0.0070548100   -0.0077067800   -0.0012468300
   0.0230315100    0.0097260900    0.0020677300
  -0.0047386100   -0.0069041900    0.0003970800
  -0.0029946300   -0.0028838600    0.0002281000
  -0.0131888400    0.0040393200    0.0018990300
   0.0036647100   -0.0133872900   -0.0005658400

3    
  0.0000000000000000   0.0000000000000000   0.0100000000000000
  -0.0014588100    0.0012474700    0.0614267700
   0.0055532800   -0.0044042600   -0.0060657000
   0.0034045500   -0.0042824500   -0.1587873500
   0.0014135400    0.0024080200    0.0631338200
   0.0011984000   -0.0062878000   -0.0063914000
   0.0004320200    0.0015733000    0.0055602600
  -0.0047074100    0.0040059200    0.0597432900
  -0.0015807900    0.0021090200    0.0016253100
  -0.0035787200   -0.0133137300   -0.0004771700
  -0.0057603100    0.0334235300   -0.0027594600
   0.0078129900    0.0018052300   -0.0016320200
  -0.0051309800   -0.0017609800   -0.0066078200
  -0.0030526500   -0.0034803400    0.0010475600
   0.0012694500   -0.0047321100   -0.0019836200
   0.0041854500   -0.0083108200   -0.0078324700

3    
  0.0000000000000000   0.0000000000000000  -0.0100000000000000
   0.0005248500    0.0014509700   -0.0608925400
   0.0044163500   -0.0031202900    0.0054058000
  -0.0021611700    0.0016243700    0.1589353500
   0.0040340900    0.0014141200   -0.0623925400
   0.0017671900   -0.0066900300    0.0058911000
   0.0011183400    0.0021316300   -0.0071109400
  -0.0042530800   -0.0001983200   -0.0651036000
   0.0005337400    0.0160184900   -0.0009661600
  -0.0060956100    0.0246273800    0.0018782600
  -0.0056190800   -0.0204842300    0.0021861400
   0.0077139000    0.0019337400    0.0049543100
  -0.0050947600   -0.0018898700    0.0070826700
  -0.0030479200   -0.0035243600   -0.0007978100
   0.0018997000   -0.0048973500    0.0045750500
   0.0042634700   -0.0083962500    0.0063549200

4    
  0.0100000000000000   0.0000000000000000   0.0000000000000000
   0.0516216800    0.0172040900   -0.0003647900
   0.0180516300   -0.0264345200   -0.0002778700
   0.2425504200   -0.1043439200   -0.0011583900
  -0.6452300600   -0.0365999300    0.0059969700
   0.1145627200    0.0238037400   -0.0007645900
  -0.0241377900    0.0294450000   -0.0006557000
  -0.0078512300   -0.0025190300   -0.0029708800
  -0.0011076500    0.0108987500    0.0002879000
  -0.0051304400    0.0071070300    0.0003446700
  -0.0054853300    0.0075328200    0.0002989600
   0.0108368300    0.0050369100    0.0014899600
  -0.0053983400   -0.0026612300    0.0002596300
   0.0011321500   -0.0004871500    0.0000158800
   0.2541273500    0.1071187300   -0.0017465100
   0.0014580800   -0.0351012900   -0.0007552700

4    
 -0.0100000000000000   0.0000000000000000   0.0000000000000000
  -0.0550155100   -0.0153692000    0.0009367000
  -0.0081995000    0.0190909500   -0.0003937000
  -0.2526394400    0.1120591100    0.0014645400
   0.6522133500    0.0198908800   -0.0051657100
  -0.1113478000   -0.0346882500    0.0002378200
   0.0259699600   -0.0259261500   -0.0008848100
  -0.0011839900    0.0068926200   -0.0023517900
   0.0000137300    0.0072352800    0.0003436100
  -0.0045821000    0.0040490800    0.0010338500
  -0.0059195700    0.0051892500   -0.0008975300
   0.0046770100   -0.0013089300    0.0018348800
  -0.0048072600   -0.0009298800    0.0002126400
  -0.0072357800   -0.0065524600    0.0002367600
  -0.2389379300   -0.1078640600    0.0041200800
   0.0069948200    0.0182317600   -0.0007273300

4    
  0.0000000000000000   0.0100000000000000   0.0000000000000000
  -0.0194351100   -0.0495417500    0.0010605000
  -0.0189891900    0.0376654800   -0.0003115300
  -0.0546433400    0.1567685800    0.0006026600
  -0.0239887200   -0.6336363300    0.0018093800
  -0.0232438600    0.3032016200   -0.0007919700
   0.0655625800    0.0280154100   -0.0014366900
  -0.0318746300    0.0265735600   -0.0025506200
  -0.0007637200    0.0148770200    0.0003416600
  -0.0069722300    0.0042904300    0.0009460800
  -0.0077417500    0.0059029400   -0.0007353500
   0.0116448500    0.0025096600    0.0016788100
  -0.0059249000   -0.0010198900    0.0001878200
  -0.0010556300   -0.0042649800    0.0001465800
   0.1107456400    0.1065995200   -0.0002126700
   0.0066800200    0.0020587400   -0.0007346600

4    
  0.0000000000000000  -0.0100000000000000   0.0000000000000000
   0.0173151900    0.0518698800   -0.0005025700
   0.0292839400   -0.0453905300   -0.0003611200
   0.0513314000   -0.1569720600   -0.0003923700
   0.0324780900    0.6579014100   -0.0011798000
   0.0262232700   -0.3382840700    0.0003730900
  -0.0647795800   -0.0249102200   -0.0000970300
   0.0226305600   -0.0217218000   -0.0026917200
  -0.0003251400    0.0032766100    0.0002643500
  -0.0027849500    0.0069911400    0.0004160700
  -0.0037008300    0.0069209400    0.0001376000
   0.0039280000    0.0012376000    0.0016462000
  -0.0042706700   -0.0025980900    0.0002845300
  -0.0050703300   -0.0027721300    0.0001022000
  -0.1041118300   -0.1164001200    0.0027451200
   0.0018528800   -0.0191485700   -0.0007445300

4    
  0.0000000000000000   0.0000000000000000   0.0100000000000000
  -0.0012661200    0.0016735000   -0.0074164200
   0.0052903400   -0.0041159600    0.0052606800
  -0.0010742800   -0.0004890900    0.0628546800
   0.0093847200    0.0031927100   -0.1221321300
   0.0011665300   -0.0063128000    0.0566119100
   0.0003266900    0.0014444400   -0.0085159300
  -0.0055607700    0.0023503400   -0.0057536400
  -0.0001426800    0.0087513700   -0.0008255500
  -0.0044266200    0.0062921200   -0.0001689900
  -0.0054177500    0.0057969400   -0.0011721800
   0.0077741000    0.0018187800   -0.0045229100
  -0.0050917400   -0.0018102300    0.0013052800
  -0.0031549600   -0.0035435100   -0.0063609000
  -0.0020411200   -0.0069241700    0.0345770700
   0.0042336600   -0.0081244300   -0.0037409800

4    
  0.0000000000000000   0.0000000000000000  -0.0100000000000000
  -0.0011533800    0.0005211700    0.0079706700
   0.0048598700   -0.0033658700   -0.0059355500
   0.0035787000   -0.0018979900   -0.0626717800
  -0.0017703900    0.0002078800    0.1228036300
   0.0015167300   -0.0050501800   -0.0571391100
   0.0013035700    0.0021120900    0.0069669100
  -0.0034150100    0.0019017700    0.0004381200
  -0.0009232800    0.0093661300    0.0014549800
  -0.0052896600    0.0049271600    0.0015528300
  -0.0059960100    0.0069782500    0.0005663400
   0.0077811500    0.0018992800    0.0078482700
  -0.0051268300   -0.0018036600   -0.0008319500
  -0.0029689600   -0.0034786700    0.0066131300
   0.0033623600   -0.0037207500   -0.0319015100
   0.0042411200   -0.0085966000    0.0022650400

5    
  0.0100000000000000   0.0000000000000000   0.0000000000000000
   0.0128529200    0.0258534700   -0.0000330300
   0.0589995000   -0.0237767700   -0.0006218400
  -0.0286080300   -0.0267659000   -0.0001858600
   0.1164896400   -0.0242330300    0.0001784800
  -0.6622136800    0.0300758600    0.0042838000
   0.2594793200    0.1106280300   -0.0024696500
  -0.0000464700    0.0001149500   -0.0025233700
  -0.0004415000    0.0074758700    0.0003973500
  -0.0047078800    0.0057314800    0.0007315800
  -0.0051609700    0.0066275900   -0.0002610100
   0.0076881300    0.0025492500    0.0016674900
  -0.0022308900   -0.0048189800    0.0002204800
  -0.0064501800   -0.0062861600    0.0000442600
  -0.0005522700    0.0223648200    0.0011909300
   0.2549023600   -0.1255404800   -0.0026196000

5    
 -0.0100000000000000   0.0000000000000000   0.0000000000000000
  -0.0154620200   -0.0239059500    0.0005966300
  -0.0498977400    0.0165705500   -0.0000422300
   0.0302103100    0.0252786000    0.0003830800
  -0.1094174800    0.0252414900    0.0005278800
   0.6672439100   -0.0228699600   -0.0048145900
  -0.2708036500   -0.1164400100    0.0010693100
  -0.0088883500    0.0041999100   -0.0027671800
  -0.0006024300    0.0106249700    0.0002301700
  -0.0050195700    0.0054989600    0.0006395100
  -0.0062623400    0.0061625100   -0.0003383900
   0.0079086400    0.0011475800    0.0016580900
  -0.0080566600    0.0012018600    0.0002499200
   0.0002568800   -0.0007318800    0.0002084700
   0.0036829700   -0.0318016300    0.0013911900
  -0.2348924700    0.0998229900    0.0010081400

5    
  0.0000000000000000   0.0100000000000000   0.0000000000000000
   0.0219985600    0.0417787800   -0.0003502100
   0.0227501800   -0.0561972600   -0.0003938300
  -0.0644592700    0.0278041100    0.0002927100
   0.0330062900    0.3333751300   -0.0003201900
   0.0279182400   -0.6538247300    0.0008938300
   0.0586580200    0.1630671900   -0.0012350900
  -0.0070871900   -0.0013634900   -0.0035001400
  -0.0001876200    0.0090959500    0.0008803400
  -0.0038904400    0.0056836300    0.0003751800
  -0.0044076800    0.0066724700    0.0002519600
   0.0087561500    0.0025005200    0.0016495200
  -0.0090816500   -0.0010784000    0.0002554200
   0.0231009000    0.0070172600   -0.0001325200
  -0.0005328200    0.0055820400    0.0013164600
  -0.1065416900    0.1098868000    0.0000165500

5    
  0.0000000000000000  -0.0100000000000000   0.0000000000000000
  -0.0241725700   -0.0394516500    0.0009045900
  -0.0124395900    0.0484668700   -0.0002823300
   0.0649968500   -0.0288171400   -0.0001084200
  -0.0254975200   -0.3081106800    0.0009459900
  -0.0250256800    0.6190894200   -0.0013227000
  -0.0611087300   -0.1603277600   -0.0002656200
  -0.0018617900    0.0056095600   -0.0018018500
  -0.0008646700    0.0089975200   -0.0002458500
  -0.0058208100    0.0055567100    0.0009918400
  -0.0069928300    0.0061341000   -0.0008365700
   0.0068487300    0.0012229800    0.0016761300
  -0.0011446200   -0.0025504900    0.0002157700
  -0.0295807700   -0.0143898000    0.0003872400
   0.0037413200   -0.0148241900    0.0012684800
   0.1189226900   -0.1266054400   -0.0015267000

5    
  0.0000000000000000   0.0000000000000000   0.0100000000000000
  -0.0013231600    0.0007750000    0.0061450700
   0.0045740200   -0.0036298300   -0.0079425200
   0.0011053800   -0.0003702500   -0.0060473200
   0.0028353100    0.0001682800    0.0572387100
   0.0063163200   -0.0055510500   -0.1241231000
  -0.0004602700    0.0012814500    0.0575843800
  -0.0053729200    0.0018465500   -0.0079898700
  -0.0004847400    0.0095295400   -0.0000370000
  -0.0043231100    0.0062384100    0.0006014500
  -0.0056341300    0.0051717000   -0.0005283200
   0.0077918300    0.0018592100    0.0027227600
  -0.0051524400   -0.0017992100   -0.0065184300
  -0.0030751600   -0.0035143700   -0.0023897900
   0.0016057600   -0.0049803900   -0.0014956400
   0.0015973000   -0.0070250300    0.0327796200

5    
  0.0000000000000000   0.0000000000000000  -0.0100000000000000
  -0.0009868400    0.0013351400   -0.0055862300
   0.0054881900   -0.0040101500    0.0072656900
   0.0002416200   -0.0011401000    0.0062354200
   0.0038352100    0.0013290200   -0.0565123400
  -0.0027768700   -0.0077628300    0.1235914200
   0.0032843500    0.0032833000   -0.0591712300
  -0.0035733000    0.0024523800    0.0026968300
  -0.0005596000    0.0085778500    0.0006659800
  -0.0054038000    0.0050016200    0.0007670500
  -0.0057843300    0.0076297200   -0.0000692000
   0.0077905700    0.0018648000    0.0006026600
  -0.0050975600   -0.0018075800    0.0069909100
  -0.0030540900   -0.0035451900    0.0026390200
   0.0015427200   -0.0046099800    0.0040890800
   0.0050537100   -0.0085979900   -0.0342050600

6    
  0.0100000000000000   0.0000000000000000   0.0000000000000000
  -0.0283006300   -0.0628496900    0.0009684700
   0.2616066000   -0.0631397400   -0.0008841400
   0.0585600700   -0.0024706900   -0.0002459300
  -0.0216191100    0.0668934900   -0.0001352800
   0.2733427100    0.0579748700   -0.0022024300
  -0.6154684800   -0.0082292800    0.0022391900
  -0.0037810800    0.0031089200   -0.0025713400
  -0.0007876400    0.0092534400    0.0000297200
  -0.0053831700    0.0056277200    0.0010760600
  -0.0067080100    0.0064998800   -0.0004231600
   0.0058648200    0.0033692100    0.0016421500
   0.0119789700   -0.0160851800    0.0001181700
   0.0492343700    0.0007985900    0.0000104500
  -0.0003719000   -0.0061432100    0.0012464700
   0.0218324900    0.0053916700   -0.0008684000

6    
 -0.0100000000000000   0.0000000000000000   0.0000000000000000
   0.0259298000    0.0652311400   -0.0004097200
  -0.2644679500    0.0648018400    0.0002662800
  -0.0572449400    0.0007298600    0.0004406500
   0.0284849400   -0.0634454000    0.0008414700
  -0.2569454500   -0.0619712000    0.0015465700
   0.6163392400   -0.0093702500   -0.0036809000
  -0.0051565300    0.0011284500   -0.0027264100
  -0.0002623700    0.0088403000    0.0006007200
  -0.0043319900    0.0056092500    0.0002886500
  -0.0047065800    0.0062937900   -0.0001674000
   0.0097079500    0.0003697700    0.0016812500
  -0.0228267400    0.0126415900    0.0003582000
  -0.0552517800   -0.0054665000    0.0002380100
   0.0034944000   -0.0034815000    0.0013417800
  -0.0127620000   -0.0219111300   -0.0006191400

6    
  0.0000000000000000   0.0100000000000000   0.0000000000000000
  -0.0277275600    0.0299523500    0.0002581000
  -0.1145369100    0.1636590600    0.0000354400
  -0.0003447500   -0.0039053200   -0.0001853400
   0.0312863000    0.0282412300    0.0000179000
   0.1168622600    0.1553381100   -0.0012734900
   0.0017447500   -0.6735793300    0.0005051800
  -0.0036833800    0.0034813500   -0.0019918600
  -0.0004625700    0.0089489700    0.0002114300
  -0.0051581400    0.0057084700    0.0006093100
  -0.0058990200    0.0066578200   -0.0005207200
   0.0081497000    0.0070958800    0.0016172400
   0.0096016800   -0.0119001100    0.0002299100
  -0.0000720300    0.2982283100   -0.0001976400
   0.0014086100    0.0004711900    0.0012483700
  -0.0111689300   -0.0183980000   -0.0005638300

6    
  0.0000000000000000  -0.0100000000000000   0.0000000000000000
   0.0250400500   -0.0273484800    0.0003002500
   0.1201339200   -0.1706143600   -0.0006920300
   0.0016321200    0.0024916900    0.0003751500
  -0.0240898600   -0.0246852600    0.0006865400
  -0.1100217300   -0.1680525000    0.0007280000
   0.0006030000    0.6955191500   -0.0020562000
  -0.0052497200    0.0007662800   -0.0033053400
  -0.0005735900    0.0091434400    0.0004218300
  -0.0045654900    0.0055307700    0.0007605500
  -0.0055173500    0.0061410900   -0.0000750900
   0.0073962200   -0.0033230200    0.0017079100
  -0.0197562200    0.0083366800    0.0002417700
  -0.0063248300   -0.3256164600    0.0004807300
   0.0017425100   -0.0100645300    0.0013397200
   0.0195509800    0.0017755100   -0.0009137600

6    
  0.0000000000000000   0.0000000000000000   0.0100000000000000
  -0.0011459600    0.0011700100   -0.0073768800
   0.0051025500   -0.0038623500    0.0579301700
   0.0003502700   -0.0005002400    0.0064361500
   0.0036106500    0.0008738000   -0.0073858100
  -0.0010642300   -0.0072518400    0.0581397000
   0.0037117900    0.0026901800   -0.1220768900
  -0.0044892500    0.0019608000   -0.0015059500
  -0.0005590500    0.0089605700    0.0002966800
  -0.0047876100    0.0054186600    0.0006965100
  -0.0057218800    0.0066178300   -0.0002491200
   0.0078037200    0.0018365600   -0.0051141300
  -0.0052123700   -0.0017596100   -0.0028319000
  -0.0031618700   -0.0028657800    0.0324167900
   0.0014798500   -0.0048341500   -0.0056374500
   0.0040833900   -0.0084544500   -0.0037378600

6    
  0.0000000000000000   0.0000000000000000  -0.0100000000000000
  -0.0013498000    0.0009225600    0.0079381500
   0.0064608500   -0.0043050700   -0.0586227100
   0.0009501300   -0.0010796800   -0.0062352200
   0.0033831500    0.0022124200    0.0080968700
   0.0024717800   -0.0062820000   -0.0586158300
  -0.0022018400    0.0001333400    0.1205223300
  -0.0044666000    0.0022760600   -0.0038132700
  -0.0004816600    0.0091306000    0.0003401500
  -0.0049257900    0.0058135700    0.0006767300
  -0.0056885900    0.0061679700   -0.0003419600
   0.0077718700    0.0019186000    0.0084407700
  -0.0050643900   -0.0018623800    0.0033022800
  -0.0029166800   -0.0020418500   -0.0321779200
   0.0016407700   -0.0047751000    0.0082257500
   0.0044167900   -0.0082290300    0.0022638800

7    
  0.0100000000000000   0.0000000000000000   0.0000000000000000
  -0.0023983700    0.0280997100    0.0013251900
   0.0088695800   -0.0027267500    0.0004330600
   0.0794025900   -0.0011492800   -0.0002983600
   0.0001154300   -0.0257270800   -0.0007206300
   0.0058151500   -0.0091038400   -0.0011506200
   0.0014625600    0.0026152600   -0.0007846100
  -0.5319867000    0.0041638200    0.0039795600
   0.2356520800   -0.0690411800    0.0513498400
   0.1518623100    0.0634921500   -0.1115608800
   0.0476068000    0.0254090800    0.0547425700
   0.0071268500    0.0033045300    0.0011169100
  -0.0050551900   -0.0005819700    0.0001786900
  -0.0032353900   -0.0035283400    0.0001366500
   0.0005131900   -0.0055184500    0.0019212700
   0.0042490900   -0.0097076400   -0.0006686300

7    
 -0.0100000000000000   0.0000000000000000   0.0000000000000000
  -0.0000328900   -0.0262406900   -0.0007715900
   0.0012666200   -0.0047995500   -0.0010934500
  -0.0784644800    0.0007408400    0.0001561300
   0.0067896200    0.0287764300    0.0014249400
  -0.0030245000   -0.0038773200    0.0006496500
   0.0000869700    0.0010479400   -0.0007620600
   0.5339925200   -0.0115104900    0.0025847500
  -0.2491373300    0.0942057400   -0.0551435500
  -0.1583072600   -0.0486605800    0.1068373900
  -0.0603946800   -0.0124493100   -0.0563504600
   0.0084428800    0.0003853000    0.0022046200
  -0.0051642500   -0.0030305000    0.0002948500
  -0.0028649000   -0.0034705400    0.0001128100
   0.0026178100   -0.0041586300    0.0006640300