mesh: [     1,     1,     1 ]
nqpoint: 1      
reciprocal_lattice:
- [   0.05172532,   0.00000000,   0.00000000 ] # a*
- [   0.00000000,   0.04804613,   0.00000000 ] # b*
- [   0.00000000,   0.00000000,   0.05957693 ] # c*
natom:   15     
lattice:
- [    19.3328899999999990,     0.0000000000000000,     0.0000000000000000 ] # a
- [     0.0000000000000000,    20.8133300000000006,     0.0000000000000000 ] # b
- [     0.0000000000000000,     0.0000000000000000,    16.7850199999999994 ] # c
atoms:
- symbol: C  # 1
  position: [  0.4380289323908168,  0.5134886830065494,  0.5002087542785785 ]
  mass: 12.010700
- symbol: C  # 2
  position: [  0.4369584990734314,  0.4463571157559401,  0.5004681556013002 ]
  mass: 12.010700
- symbol: C  # 3
  position: [  0.5007096080646330,  0.5473315923334259,  0.4997988564685877 ]
  mass: 12.010700
- symbol: C  # 4
  position: [  0.5624959043378596,  0.5119546699484621,  0.4993220573826543 ]
  mass: 12.010700
- symbol: C  # 5
  position: [  0.5617283068492391,  0.4449261002256469,  0.4996078255415269 ]
  mass: 12.010700
- symbol: C  # 6
  position: [  0.4988481844882633,  0.4117917645226141,  0.5002489816428880 ]
  mass: 12.010700
- symbol: C  # 7
  position: [  0.5022338615528171,  0.6196675858227282,  0.5010421597607561 ]
  mass: 12.010700
- symbol: H  # 8
  position: [  0.4516365604663596,  0.6400956921300658,  0.4856196394301625 ]
  mass: 1.007940
- symbol: H  # 9
  position: [  0.5407106358634663,  0.6386648400687464,  0.4589836162530305 ]
  mass: 1.007940
- symbol: H  # 10
  position: [  0.5163090089118684,  0.6376559096324116,  0.5605620996677975 ]
  mass: 1.007940
- symbol: H  # 11
  position: [  0.3893364629979087,  0.5401139196189237,  0.5001859920164536 ]
  mass: 1.007940
- symbol: H  # 12
  position: [  0.3875669812269840,  0.4210183503283848,  0.5006725678482267 ]
  mass: 1.007940
- symbol: H  # 13
  position: [  0.4981762875612417,  0.3594038289965611,  0.5003348609848888 ]
  mass: 1.007940
- symbol: H  # 14
  position: [  0.6118699421435516,  0.5374735777402547,  0.4985918612993833 ]
  mass: 1.007940
- symbol: H  # 15
  position: [  0.6104169334633690,  0.4184454935703074,  0.4991593185702757 ]
  mass: 1.007940
supercell_matrix:
- [    1,    0,    0 ]
- [    0,    1,    0 ]
- [    0,    0,    1 ]

phonon:
- q-position: [    0.0000000,    0.0000000,    0.0000000 ]
  weight: 1    
  band:
  - # 1
    frequency:    -0.3772780988
    eigenvector:
    - # atom 1
      - [  0.00108140431902,  0.00000000000000 ]
      - [  0.00719238834638,  0.00000000000000 ]
      - [ -0.23246707043506,  0.00000000000000 ]
    - # atom 2
      - [ -0.00757014060693,  0.00000000000000 ]
      - [  0.00808919521244,  0.00000000000000 ]
      - [  0.07526985947754,  0.00000000000000 ]
    - # atom 3
      - [  0.00593654658969,  0.00000000000000 ]
      - [ -0.00133997824716,  0.00000000000000 ]
      - [ -0.21013945193302,  0.00000000000000 ]
    - # atom 4
      - [  0.00310021967262,  0.00000000000000 ]
      - [ -0.01000991560021,  0.00000000000000 ]
      - [  0.13266905649221,  0.00000000000000 ]
    - # atom 5
      - [ -0.00558184431678,  0.00000000000000 ]
      - [ -0.00867344175748,  0.00000000000000 ]
      - [  0.44110487449505,  0.00000000000000 ]
    - # atom 6
      - [ -0.01125508684120,  0.00000000000000 ]
      - [  0.00055362864170,  0.00000000000000 ]
      - [  0.41270497897286,  0.00000000000000 ]
    - # atom 7
      - [  0.01266959050354,  0.00000000000000 ]
      - [  0.00323999281765,  0.00000000000000 ]
      - [ -0.54840256960308,  0.00000000000000 ]
    - # atom 8
      - [  0.01089006164379,  0.00000000000000 ]
      - [ -0.01448124156085,  0.00000000000000 ]
      - [ -0.21138383811100,  0.00000000000000 ]
    - # atom 9
      - [  0.02175976976494,  0.00000000000000 ]
      - [ -0.04682070068167,  0.00000000000000 ]
      - [ -0.16667681354263,  0.00000000000000 ]
    - # atom 10
      - [ -0.02010705720573,  0.00000000000000 ]
      - [  0.06634233063919,  0.00000000000000 ]
      - [ -0.17696742037989,  0.00000000000000 ]
    - # atom 11
      - [  0.00126094775866,  0.00000000000000 ]
      - [  0.00363633184254,  0.00000000000000 ]
      - [ -0.14333168606576,  0.00000000000000 ]
    - # atom 12
      - [ -0.00322247815564,  0.00000000000000 ]
      - [  0.00416361707818,  0.00000000000000 ]
      - [  0.01481467692673,  0.00000000000000 ]
    - # atom 13
      - [ -0.00509702017284,  0.00000000000000 ]
      - [  0.00027528169334,  0.00000000000000 ]
      - [  0.18928175462518,  0.00000000000000 ]
    - # atom 14
      - [  0.00231540443427,  0.00000000000000 ]
      - [ -0.00526783583711,  0.00000000000000 ]
      - [  0.04568003973419,  0.00000000000000 ]
    - # atom 15
      - [ -0.00220981864776,  0.00000000000000 ]
      - [ -0.00457486638182,  0.00000000000000 ]
      - [  0.20439215105084,  0.00000000000000 ]
  - # 2
    frequency:    -0.3389450781
    eigenvector:
    - # atom 1
      - [  0.05067122001567,  0.00000000000000 ]
      - [  0.24447969731624,  0.00000000000000 ]
      - [  0.00629336205429,  0.00000000000000 ]
    - # atom 2
      - [ -0.23355841329160,  0.00000000000000 ]
      - [  0.24869465506221,  0.00000000000000 ]
      - [ -0.00285032282465,  0.00000000000000 ]
    - # atom 3
      - [  0.19396385089996,  0.00000000000000 ]
      - [ -0.00191427167753,  0.00000000000000 ]
      - [  0.00616492428131,  0.00000000000000 ]
    - # atom 4
      - [  0.04403626305728,  0.00000000000000 ]
      - [ -0.24497982649716,  0.00000000000000 ]
      - [ -0.00359176267430,  0.00000000000000 ]
    - # atom 5
      - [ -0.23976886391507,  0.00000000000000 ]
      - [ -0.24203913671503,  0.00000000000000 ]
      - [ -0.01274708179949,  0.00000000000000 ]
    - # atom 6
      - [ -0.37994261902605,  0.00000000000000 ]
      - [  0.00522876645178,  0.00000000000000 ]
      - [ -0.01238152541548,  0.00000000000000 ]
    - # atom 7
      - [  0.50041016208436,  0.00000000000000 ]
      - [ -0.00799189945722,  0.00000000000000 ]
      - [  0.01688840870106,  0.00000000000000 ]
    - # atom 8
      - [  0.17096531283226,  0.00000000000000 ]
      - [  0.05600067023044,  0.00000000000000 ]
      - [  0.00243390796662,  0.00000000000000 ]
    - # atom 9
      - [  0.17075790899849,  0.00000000000000 ]
      - [ -0.04478286296024,  0.00000000000000 ]
      - [  0.00829796648958,  0.00000000000000 ]
    - # atom 10
      - [  0.16361835909612,  0.00000000000000 ]
      - [ -0.02036460219045,  0.00000000000000 ]
      - [  0.00659481204733,  0.00000000000000 ]
    - # atom 11
      - [  0.04731195168685,  0.00000000000000 ]
      - [  0.12624730791317,  0.00000000000000 ]
      - [  0.00392278317689,  0.00000000000000 ]
    - # atom 12
      - [ -0.09877238712154,  0.00000000000000 ]
      - [  0.12838769991784,  0.00000000000000 ]
      - [ -0.00077144006325,  0.00000000000000 ]
    - # atom 13
      - [ -0.17434835887021,  0.00000000000000 ]
      - [  0.00228302793201,  0.00000000000000 ]
      - [ -0.00570034783134,  0.00000000000000 ]
    - # atom 14
      - [  0.04404362630855,  0.00000000000000 ]
      - [ -0.12722222035771,  0.00000000000000 ]
      - [ -0.00119795911392,  0.00000000000000 ]
    - # atom 15
      - [ -0.10200007979093,  0.00000000000000 ]
      - [ -0.12565097633282,  0.00000000000000 ]
      - [ -0.00590255273287,  0.00000000000000 ]
  - # 3
    frequency:    -0.0000017018
    eigenvector:
    - # atom 1
      - [ -0.00000000014726,  0.00000000000000 ]
      - [  0.21163462090659,  0.00000000000000 ]
      - [  0.29251623314805,  0.00000000000000 ]
    - # atom 2
      - [ -0.00000000014541,  0.00000000000000 ]
      - [  0.21163462090659,  0.00000000000000 ]
      - [  0.29251623315303,  0.00000000000000 ]
    - # atom 3
      - [ -0.00000000014820,  0.00000000000000 ]
      - [  0.21163462090815,  0.00000000000000 ]
      - [  0.29251623313884,  0.00000000000000 ]
    - # atom 4
      - [ -0.00000000014730,  0.00000000000000 ]
      - [  0.21163462090968,  0.00000000000000 ]
      - [  0.29251623313465,  0.00000000000000 ]
    - # atom 5
      - [ -0.00000000014545,  0.00000000000000 ]
      - [  0.21163462090966,  0.00000000000000 ]
      - [  0.29251623313957,  0.00000000000000 ]
    - # atom 6
      - [ -0.00000000014448,  0.00000000000000 ]
      - [  0.21163462090813,  0.00000000000000 ]
      - [  0.29251623314882,  0.00000000000000 ]
    - # atom 7
      - [ -0.00000000015015,  0.00000000000000 ]
      - [  0.21163462090825,  0.00000000000000 ]
      - [  0.29251623313381,  0.00000000000000 ]
    - # atom 8
      - [ -0.00000000004368,  0.00000000000000 ]
      - [  0.06130838770004,  0.00000000000000 ]
      - [  0.08473896450716,  0.00000000000000 ]
    - # atom 9
      - [ -0.00000000004368,  0.00000000000000 ]
      - [  0.06130838770026,  0.00000000000000 ]
      - [  0.08473896450709,  0.00000000000000 ]
    - # atom 10
      - [ -0.00000000004361,  0.00000000000000 ]
      - [  0.06130838770171,  0.00000000000000 ]
      - [  0.08473896450714,  0.00000000000000 ]
    - # atom 11
      - [ -0.00000000004287,  0.00000000000000 ]
      - [  0.06130838769982,  0.00000000000000 ]
      - [  0.08473896451257,  0.00000000000000 ]
    - # atom 12
      - [ -0.00000000004192,  0.00000000000000 ]
      - [  0.06130838769981,  0.00000000000000 ]
      - [  0.08473896451514,  0.00000000000000 ]
    - # atom 13
      - [ -0.00000000004144,  0.00000000000000 ]
      - [  0.06130838770061,  0.00000000000000 ]
      - [  0.08473896451296,  0.00000000000000 ]
    - # atom 14
      - [ -0.00000000004289,  0.00000000000000 ]
      - [  0.06130838770142,  0.00000000000000 ]
      - [  0.08473896450564,  0.00000000000000 ]
    - # atom 15
      - [ -0.00000000004194,  0.00000000000000 ]
      - [  0.06130838770141,  0.00000000000000 ]
      - [  0.08473896450817,  0.00000000000000 ]
  - # 4
    frequency:    -0.0000002081
    eigenvector:
    - # atom 1
      - [ -0.36104703214218,  0.00000000000000 ]
      - [ -0.00000000003455,  0.00000000000000 ]
      - [ -0.00000000014787,  0.00000000000000 ]
    - # atom 2
      - [ -0.36104703214195,  0.00000000000000 ]
      - [ -0.00000000003453,  0.00000000000000 ]
      - [ -0.00000000014367,  0.00000000000000 ]
    - # atom 3
      - [ -0.36104703214230,  0.00000000000000 ]
      - [ -0.00000000003441,  0.00000000000000 ]
      - [ -0.00000000015937,  0.00000000000000 ]
    - # atom 4
      - [ -0.36104703214228,  0.00000000000000 ]
      - [ -0.00000000003427,  0.00000000000000 ]
      - [ -0.00000000016667,  0.00000000000000 ]
    - # atom 5
      - [ -0.36104703214206,  0.00000000000000 ]
      - [ -0.00000000003427,  0.00000000000000 ]
      - [ -0.00000000016254,  0.00000000000000 ]
    - # atom 6
      - [ -0.36104703214188,  0.00000000000000 ]
      - [ -0.00000000003439,  0.00000000000000 ]
      - [ -0.00000000015098,  0.00000000000000 ]
    - # atom 7
      - [ -0.36104703214245,  0.00000000000000 ]
      - [ -0.00000000003435,  0.00000000000000 ]
      - [ -0.00000000016351,  0.00000000000000 ]
    - # atom 8
      - [ -0.10459163689666,  0.00000000000000 ]
      - [ -0.00000000001019,  0.00000000000000 ]
      - [ -0.00000000004710,  0.00000000000000 ]
    - # atom 9
      - [ -0.10459163689691,  0.00000000000000 ]
      - [ -0.00000000001046,  0.00000000000000 ]
      - [ -0.00000000004810,  0.00000000000000 ]
    - # atom 10
      - [ -0.10459163689593,  0.00000000000000 ]
      - [ -0.00000000000917,  0.00000000000000 ]
      - [ -0.00000000004780,  0.00000000000000 ]
    - # atom 11
      - [ -0.10459163689642,  0.00000000000000 ]
      - [ -0.00000000001005,  0.00000000000000 ]
      - [ -0.00000000004118,  0.00000000000000 ]
    - # atom 12
      - [ -0.10459163689630,  0.00000000000000 ]
      - [ -0.00000000001004,  0.00000000000000 ]
      - [ -0.00000000003902,  0.00000000000000 ]
    - # atom 13
      - [ -0.10459163689627,  0.00000000000000 ]
      - [ -0.00000000000996,  0.00000000000000 ]
      - [ -0.00000000004280,  0.00000000000000 ]
    - # atom 14
      - [ -0.10459163689648,  0.00000000000000 ]
      - [ -0.00000000000990,  0.00000000000000 ]
      - [ -0.00000000005091,  0.00000000000000 ]
    - # atom 15
      - [ -0.10459163689636,  0.00000000000000 ]
      - [ -0.00000000000990,  0.00000000000000 ]
      - [ -0.00000000004878,  0.00000000000000 ]
  - # 5
    frequency:     0.0000012316
    eigenvector:
    - # atom 1
      - [  0.00000000006424,  0.00000000000000 ]
      - [  0.29251623314414,  0.00000000000000 ]
      - [ -0.21163462091818,  0.00000000000000 ]
    - # atom 2
      - [  0.00000000006200,  0.00000000000000 ]
      - [  0.29251623314416,  0.00000000000000 ]
      - [ -0.21163462091928,  0.00000000000000 ]
    - # atom 3
      - [  0.00000000006540,  0.00000000000000 ]
      - [  0.29251623314223,  0.00000000000000 ]
      - [ -0.21163462090741,  0.00000000000000 ]
    - # atom 4
      - [  0.00000000006431,  0.00000000000000 ]
      - [  0.29251623314034,  0.00000000000000 ]
      - [ -0.21163462089762,  0.00000000000000 ]
    - # atom 5
      - [  0.00000000006207,  0.00000000000000 ]
      - [  0.29251623314038,  0.00000000000000 ]
      - [ -0.21163462089867,  0.00000000000000 ]
    - # atom 6
      - [  0.00000000006088,  0.00000000000000 ]
      - [  0.29251623314228,  0.00000000000000 ]
      - [ -0.21163462090955,  0.00000000000000 ]
    - # atom 7
      - [  0.00000000006769,  0.00000000000000 ]
      - [  0.29251623314218,  0.00000000000000 ]
      - [ -0.21163462090656,  0.00000000000000 ]
    - # atom 8
      - [  0.00000000002014,  0.00000000000000 ]
      - [  0.08473896451041,  0.00000000000000 ]
      - [ -0.06130838770136,  0.00000000000000 ]
    - # atom 9
      - [  0.00000000002068,  0.00000000000000 ]
      - [  0.08473896450967,  0.00000000000000 ]
      - [ -0.06130838769918,  0.00000000000000 ]
    - # atom 10
      - [  0.00000000001854,  0.00000000000000 ]
      - [  0.08473896450967,  0.00000000000000 ]
      - [ -0.06130838769978,  0.00000000000000 ]
    - # atom 11
      - [  0.00000000001886,  0.00000000000000 ]
      - [  0.08473896451092,  0.00000000000000 ]
      - [ -0.06130838770573,  0.00000000000000 ]
    - # atom 12
      - [  0.00000000001771,  0.00000000000000 ]
      - [  0.08473896451093,  0.00000000000000 ]
      - [ -0.06130838770630,  0.00000000000000 ]
    - # atom 13
      - [  0.00000000001714,  0.00000000000000 ]
      - [  0.08473896450996,  0.00000000000000 ]
      - [ -0.06130838770127,  0.00000000000000 ]
    - # atom 14
      - [  0.00000000001890,  0.00000000000000 ]
      - [  0.08473896450896,  0.00000000000000 ]
      - [ -0.06130838769509,  0.00000000000000 ]
    - # atom 15
      - [  0.00000000001775,  0.00000000000000 ]
      - [  0.08473896450897,  0.00000000000000 ]
      - [ -0.06130838769563,  0.00000000000000 ]
  - # 6
    frequency:     0.1365987014
    eigenvector:
    - # atom 1
      - [ -0.00076696330632,  0.00000000000000 ]
      - [  0.00002884745810,  0.00000000000000 ]
      - [ -0.37487459338391,  0.00000000000000 ]
    - # atom 2
      - [ -0.00228742413543,  0.00000000000000 ]
      - [ -0.00080952301985,  0.00000000000000 ]
      - [ -0.52046572978427,  0.00000000000000 ]
    - # atom 3
      - [  0.00112981605675,  0.00000000000000 ]
      - [  0.00053006553307,  0.00000000000000 ]
      - [  0.09874150367445,  0.00000000000000 ]
    - # atom 4
      - [  0.00417233612788,  0.00000000000000 ]
      - [  0.00112535917068,  0.00000000000000 ]
      - [  0.42718178122840,  0.00000000000000 ]
    - # atom 5
      - [  0.00254478433686,  0.00000000000000 ]
      - [  0.00107228255756,  0.00000000000000 ]
      - [  0.28430660746120,  0.00000000000000 ]
    - # atom 6
      - [ -0.00135123813159,  0.00000000000000 ]
      - [ -0.00021039118133,  0.00000000000000 ]
      - [ -0.19188667405043,  0.00000000000000 ]
    - # atom 7
      - [ -0.00302301902491,  0.00000000000000 ]
      - [ -0.00135894200419,  0.00000000000000 ]
      - [  0.24586373107243,  0.00000000000000 ]
    - # atom 8
      - [  0.01396501740930,  0.00000000000000 ]
      - [  0.00659475209734,  0.00000000000000 ]
      - [  0.02686820694509,  0.00000000000000 ]
    - # atom 9
      - [  0.03905884680186,  0.00000000000000 ]
      - [  0.01845466016355,  0.00000000000000 ]
      - [  0.12361809695458,  0.00000000000000 ]
    - # atom 10
      - [ -0.05669213166814,  0.00000000000000 ]
      - [ -0.02713226253662,  0.00000000000000 ]
      - [  0.09633136331107,  0.00000000000000 ]
    - # atom 11
      - [ -0.00017118515223,  0.00000000000000 ]
      - [  0.00002545945767,  0.00000000000000 ]
      - [ -0.18319676537250,  0.00000000000000 ]
    - # atom 12
      - [ -0.00101494622780,  0.00000000000000 ]
      - [ -0.00029122875997,  0.00000000000000 ]
      - [ -0.25822634545888,  0.00000000000000 ]
    - # atom 13
      - [ -0.00048583091034,  0.00000000000000 ]
      - [ -0.00010146405878,  0.00000000000000 ]
      - [ -0.08814786189517,  0.00000000000000 ]
    - # atom 14
      - [  0.00243435469685,  0.00000000000000 ]
      - [  0.00063935277328,  0.00000000000000 ]
      - [  0.23189386359050,  0.00000000000000 ]
    - # atom 15
      - [  0.00146194429136,  0.00000000000000 ]
      - [  0.00050692744069,  0.00000000000000 ]
      - [  0.15833086666927,  0.00000000000000 ]
  - # 7
    frequency:     0.5238120976
    eigenvector:
    - # atom 1
      - [ -0.00508942813828,  0.00000000000000 ]
      - [ -0.00242227151408,  0.00000000000000 ]
      - [ -0.01308110725943,  0.00000000000000 ]
    - # atom 2
      - [ -0.00178890659599,  0.00000000000000 ]
      - [ -0.00832539317835,  0.00000000000000 ]
      - [ -0.05736433883724,  0.00000000000000 ]
    - # atom 3
      - [ -0.01310093173347,  0.00000000000000 ]
      - [  0.00001502374395,  0.00000000000000 ]
      - [  0.04466879571239,  0.00000000000000 ]
    - # atom 4
      - [ -0.00479256084239,  0.00000000000000 ]
      - [  0.00199308034243,  0.00000000000000 ]
      - [  0.08239256366317,  0.00000000000000 ]
    - # atom 5
      - [ -0.00107158635595,  0.00000000000000 ]
      - [  0.00745908857642,  0.00000000000000 ]
      - [  0.03847805814410,  0.00000000000000 ]
    - # atom 6
      - [ -0.00309217112411,  0.00000000000000 ]
      - [ -0.00055957799687,  0.00000000000000 ]
      - [ -0.03678511482546,  0.00000000000000 ]
    - # atom 7
      - [  0.01692651189016,  0.00000000000000 ]
      - [  0.00145488080389,  0.00000000000000 ]
      - [ -0.04040207342581,  0.00000000000000 ]
    - # atom 8
      - [ -0.13675746333326,  0.00000000000000 ]
      - [ -0.00380987810286,  0.00000000000000 ]
      - [  0.52032528433904,  0.00000000000000 ]
    - # atom 9
      - [ -0.38780157440676,  0.00000000000000 ]
      - [ -0.00641155931224,  0.00000000000000 ]
      - [ -0.43262220564208,  0.00000000000000 ]
    - # atom 10
      - [  0.56794579742553,  0.00000000000000 ]
      - [  0.01210965379608,  0.00000000000000 ]
      - [ -0.17088851385026,  0.00000000000000 ]
    - # atom 11
      - [ -0.00164212892041,  0.00000000000000 ]
      - [ -0.00130698381104,  0.00000000000000 ]
      - [ -0.00354175098499,  0.00000000000000 ]
    - # atom 12
      - [ -0.00028851734090,  0.00000000000000 ]
      - [ -0.00284054790824,  0.00000000000000 ]
      - [ -0.02674526541609,  0.00000000000000 ]
    - # atom 13
      - [  0.00101791686298,  0.00000000000000 ]
      - [ -0.00019265008987,  0.00000000000000 ]
      - [ -0.01708103573889,  0.00000000000000 ]
    - # atom 14
      - [ -0.00115481722523,  0.00000000000000 ]
      - [  0.00106006215194,  0.00000000000000 ]
      - [  0.04585636808671,  0.00000000000000 ]
    - # atom 15
      - [  0.00013572785569,  0.00000000000000 ]
      - [  0.00272149529229,  0.00000000000000 ]
      - [  0.02288346842477,  0.00000000000000 ]
  - # 8
    frequency:     6.0070878018
    eigenvector:
    - # atom 1
      - [ -0.00456915324153,  0.00000000000000 ]
      - [  0.00154118963404,  0.00000000000000 ]
      - [ -0.38135594345886,  0.00000000000000 ]
    - # atom 2
      - [ -0.00035410715293,  0.00000000000000 ]
      - [  0.00220850040157,  0.00000000000000 ]
      - [  0.00925809445677,  0.00000000000000 ]
    - # atom 3
      - [ -0.00417664832530,  0.00000000000000 ]
      - [  0.00029878177941,  0.00000000000000 ]
      - [ -0.30293453389523,  0.00000000000000 ]
    - # atom 4
      - [ -0.00235976135214,  0.00000000000000 ]
      - [  0.00295620968197,  0.00000000000000 ]
      - [ -0.37202599161378,  0.00000000000000 ]
    - # atom 5
      - [  0.00078356192964,  0.00000000000000 ]
      - [  0.00523878855691,  0.00000000000000 ]
      - [  0.03548494862301,  0.00000000000000 ]
    - # atom 6
      - [  0.00273015812560,  0.00000000000000 ]
      - [  0.00582680668249,  0.00000000000000 ]
      - [  0.40374719522670,  0.00000000000000 ]
    - # atom 7
      - [  0.00509310822731,  0.00000000000000 ]
      - [ -0.01363365147189,  0.00000000000000 ]
      - [  0.42065148122687,  0.00000000000000 ]
    - # atom 8
      - [ -0.01322312549283,  0.00000000000000 ]
      - [  0.04235588085065,  0.00000000000000 ]
      - [  0.25372146373641,  0.00000000000000 ]
    - # atom 9
      - [ -0.03364583751471,  0.00000000000000 ]
      - [  0.11770523274060,  0.00000000000000 ]
      - [  0.15272284159863,  0.00000000000000 ]
    - # atom 10
      - [  0.05643506126408,  0.00000000000000 ]
      - [ -0.18006812975259,  0.00000000000000 ]
      - [  0.17310305305005,  0.00000000000000 ]
    - # atom 11
      - [ -0.00125547617851,  0.00000000000000 ]
      - [  0.00046638343384,  0.00000000000000 ]
      - [ -0.14311993350912,  0.00000000000000 ]
    - # atom 12
      - [  0.00045341709956,  0.00000000000000 ]
      - [ -0.00015927954793,  0.00000000000000 ]
      - [  0.03558903331880,  0.00000000000000 ]
    - # atom 13
      - [  0.00205773121887,  0.00000000000000 ]
      - [  0.00187109184770,  0.00000000000000 ]
      - [  0.26265732125396,  0.00000000000000 ]
    - # atom 14
      - [ -0.00133787096487,  0.00000000000000 ]
      - [  0.00132424723524,  0.00000000000000 ]
      - [ -0.13873906569574,  0.00000000000000 ]
    - # atom 15
      - [  0.00036402045730,  0.00000000000000 ]
      - [  0.00118948269416,  0.00000000000000 ]
      - [  0.05018661851218,  0.00000000000000 ]
  - # 9
    frequency:    10.0807675754
    eigenvector:
    - # atom 1
      - [  0.28963731702861,  0.00000000000000 ]
      - [  0.12263325062226,  0.00000000000000 ]
      - [ -0.01889352520984,  0.00000000000000 ]
    - # atom 2
      - [ -0.02812484846444,  0.00000000000000 ]
      - [  0.17085776533081,  0.00000000000000 ]
      - [  0.01689671277140,  0.00000000000000 ]
    - # atom 3
      - [  0.33812618108005,  0.00000000000000 ]
      - [  0.00213055469015,  0.00000000000000 ]
      - [ -0.00171709872100,  0.00000000000000 ]
    - # atom 4
      - [  0.28083106075440,  0.00000000000000 ]
      - [ -0.13720240915344,  0.00000000000000 ]
      - [  0.01220684542839,  0.00000000000000 ]
    - # atom 5
      - [ -0.03806263034363,  0.00000000000000 ]
      - [ -0.17846615479096,  0.00000000000000 ]
      - [ -0.01788946958640,  0.00000000000000 ]
    - # atom 6
      - [ -0.14454802542259,  0.00000000000000 ]
      - [ -0.00546003444587,  0.00000000000000 ]
      - [  0.00287299346806,  0.00000000000000 ]
    - # atom 7
      - [ -0.50368737640256,  0.00000000000000 ]
      - [  0.01979890500275,  0.00000000000000 ]
      - [  0.00453358649365,  0.00000000000000 ]
    - # atom 8
      - [ -0.25130661722010,  0.00000000000000 ]
      - [ -0.22455964509979,  0.00000000000000 ]
      - [  0.01898193682183,  0.00000000000000 ]
    - # atom 9
      - [ -0.25495405282482,  0.00000000000000 ]
      - [  0.18565791284079,  0.00000000000000 ]
      - [ -0.01242781796978,  0.00000000000000 ]
    - # atom 10
      - [ -0.22646665134720,  0.00000000000000 ]
      - [  0.06996144149261,  0.00000000000000 ]
      - [ -0.00095476552165,  0.00000000000000 ]
    - # atom 11
      - [  0.11649520903416,  0.00000000000000 ]
      - [  0.09056724274024,  0.00000000000000 ]
      - [ -0.01230595550964,  0.00000000000000 ]
    - # atom 12
      - [ -0.03984016522987,  0.00000000000000 ]
      - [  0.10765503209590,  0.00000000000000 ]
      - [  0.01043565811645,  0.00000000000000 ]
    - # atom 13
      - [ -0.08648736020469,  0.00000000000000 ]
      - [ -0.00105024610186,  0.00000000000000 ]
      - [  0.00236002332135,  0.00000000000000 ]
    - # atom 14
      - [  0.11545640673170,  0.00000000000000 ]
      - [ -0.10126908366632,  0.00000000000000 ]
      - [  0.01046389602326,  0.00000000000000 ]
    - # atom 15
      - [ -0.04317127874910,  0.00000000000000 ]
      - [ -0.10725839460081,  0.00000000000000 ]
      - [ -0.00968371214955,  0.00000000000000 ]
  - # 10
    frequency:    11.9322889444
    eigenvector:
    - # atom 1
      - [  0.01437710193256,  0.00000000000000 ]
      - [  0.00485582291999,  0.00000000000000 ]
      - [  0.42410764551585,  0.00000000000000 ]
    - # atom 2
      - [ -0.00374817528705,  0.00000000000000 ]
      - [  0.00651784955000,  0.00000000000000 ]
      - [ -0.41649469849049,  0.00000000000000 ]
    - # atom 3
      - [  0.01508048218723,  0.00000000000000 ]
      - [  0.00008036313031,  0.00000000000000 ]
      - [  0.00185583743310,  0.00000000000000 ]
    - # atom 4
      - [  0.00875524143589,  0.00000000000000 ]
      - [ -0.00560473918314,  0.00000000000000 ]
      - [ -0.41862341108338,  0.00000000000000 ]
    - # atom 5
      - [  0.00082711873378,  0.00000000000000 ]
      - [ -0.00670323050394,  0.00000000000000 ]
      - [  0.42074988376277,  0.00000000000000 ]
    - # atom 6
      - [ -0.00583540214146,  0.00000000000000 ]
      - [ -0.00023659740747,  0.00000000000000 ]
      - [ -0.00317695505853,  0.00000000000000 ]
    - # atom 7
      - [ -0.02265294181758,  0.00000000000000 ]
      - [  0.00081774114363,  0.00000000000000 ]
      - [ -0.00115208371028,  0.00000000000000 ]
    - # atom 8
      - [ -0.00881371814762,  0.00000000000000 ]
      - [ -0.00698244292397,  0.00000000000000 ]
      - [ -0.00353773332391,  0.00000000000000 ]
    - # atom 9
      - [ -0.00907930593842,  0.00000000000000 ]
      - [  0.00055374024569,  0.00000000000000 ]
      - [ -0.00279500542882,  0.00000000000000 ]
    - # atom 10
      - [ -0.00762584346493,  0.00000000000000 ]
      - [  0.00778331850912,  0.00000000000000 ]
      - [ -0.00279383273696,  0.00000000000000 ]
    - # atom 11
      - [  0.00582870259151,  0.00000000000000 ]
      - [  0.00421512426253,  0.00000000000000 ]
      - [  0.26837145476589,  0.00000000000000 ]
    - # atom 12
      - [ -0.00299789007169,  0.00000000000000 ]
      - [  0.00440303910281,  0.00000000000000 ]
      - [ -0.27410495450346,  0.00000000000000 ]
    - # atom 13
      - [ -0.00321265416477,  0.00000000000000 ]
      - [ -0.00005909838510,  0.00000000000000 ]
      - [ -0.00712549964893,  0.00000000000000 ]
    - # atom 14
      - [  0.00235362575307,  0.00000000000000 ]
      - [ -0.00467313127257,  0.00000000000000 ]
      - [ -0.27122752057922,  0.00000000000000 ]
    - # atom 15
      - [  0.00006187474741,  0.00000000000000 ]
      - [ -0.00429888585094,  0.00000000000000 ]
      - [  0.26813033479451,  0.00000000000000 ]
  - # 11
    frequency:    13.7370657477
    eigenvector:
    - # atom 1
      - [  0.01074834764002,  0.00000000000000 ]
      - [ -0.00858425909186,  0.00000000000000 ]
      - [ -0.08867944903464,  0.00000000000000 ]
    - # atom 2
      - [  0.00922716029486,  0.00000000000000 ]
      - [ -0.01342381968150,  0.00000000000000 ]
      - [ -0.26122080969519,  0.00000000000000 ]
    - # atom 3
      - [  0.00310058716510,  0.00000000000000 ]
      - [  0.01931156040007,  0.00000000000000 ]
      - [  0.60025345059922,  0.00000000000000 ]
    - # atom 4
      - [ -0.01435183474386,  0.00000000000000 ]
      - [ -0.00763773150607,  0.00000000000000 ]
      - [ -0.08487107067163,  0.00000000000000 ]
    - # atom 5
      - [ -0.01239138630561,  0.00000000000000 ]
      - [ -0.01264430352264,  0.00000000000000 ]
      - [ -0.26140669879927,  0.00000000000000 ]
    - # atom 6
      - [  0.00273932803166,  0.00000000000000 ]
      - [ -0.02636360999776,  0.00000000000000 ]
      - [  0.39905426432402,  0.00000000000000 ]
    - # atom 7
      - [  0.00213854923757,  0.00000000000000 ]
      - [  0.04220238912426,  0.00000000000000 ]
      - [ -0.02494211724173,  0.00000000000000 ]
    - # atom 8
      - [  0.00377401680125,  0.00000000000000 ]
      - [ -0.03818620320014,  0.00000000000000 ]
      - [ -0.10360293180804,  0.00000000000000 ]
    - # atom 9
      - [ -0.00015844757261,  0.00000000000000 ]
      - [ -0.12531462987023,  0.00000000000000 ]
      - [ -0.08623742248030,  0.00000000000000 ]
    - # atom 10
      - [ -0.00291452888114,  0.00000000000000 ]
      - [  0.21188231144100,  0.00000000000000 ]
      - [ -0.08207706578502,  0.00000000000000 ]
    - # atom 11
      - [ -0.00007264352748,  0.00000000000000 ]
      - [ -0.00797790133247,  0.00000000000000 ]
      - [ -0.19513498773327,  0.00000000000000 ]
    - # atom 12
      - [  0.00028405281170,  0.00000000000000 ]
      - [ -0.00070926813168,  0.00000000000000 ]
      - [ -0.24079355010678,  0.00000000000000 ]
    - # atom 13
      - [  0.00134636102737,  0.00000000000000 ]
      - [ -0.00754265878593,  0.00000000000000 ]
      - [  0.19725160427057,  0.00000000000000 ]
    - # atom 14
      - [ -0.00358035132068,  0.00000000000000 ]
      - [ -0.00738915059866,  0.00000000000000 ]
      - [ -0.20224047413556,  0.00000000000000 ]
    - # atom 15
      - [ -0.00285793471164,  0.00000000000000 ]
      - [ -0.00011622388432,  0.00000000000000 ]
      - [ -0.24745988908672,  0.00000000000000 ]
  - # 12
    frequency:    15.4086885038
    eigenvector:
    - # atom 1
      - [ -0.19880067254732,  0.00000000000000 ]
      - [  0.08502812411074,  0.00000000000000 ]