14.400
   1.0271400   0.0000000   0.0000000   0.0000000   1.0271070   0.0000000   0.0000000   0.0000000   1.0146700
   0.0541500  -0.0603100   0.0000000  -0.0598800  -0.0134000   0.0000000  -0.0000000  -0.0000000  -0.1297500
   0.0557300   0.0594200   0.0000000   0.0589900  -0.0149200   0.0000000  -0.0000000  -0.0000000  -0.1297500
  -0.0484200   0.0008800   0.0000000   0.0009100   0.0896800   0.0000000   0.0000000   0.0000000  -0.1297500
  -0.0606400   0.0723400   0.0000000   0.0721500   0.0202000   0.0000000  -0.0000000   0.0000000   0.1299900
   0.0624100  -0.0010700   0.0000000  -0.0010700  -0.1028800   0.0000000   0.0000000   0.0000000   0.1299900
  -0.0625000  -0.0712700   0.0000000  -0.0710800   0.0220400   0.0000000  -0.0000000  -0.0000000   0.1299900
