15   
90   

1    
  0.0050000000000000   0.0000000000000000   0.0000000000000000
  -0.3268235600    0.0122848700    0.0007839000
   0.0615233000   -0.0154363700   -0.0004323700
   0.1291267000    0.0547044300   -0.0004089700
   0.0302080800   -0.0076695900    0.0003257700
   0.0085272900    0.0050996300   -0.0003400700
  -0.0128323300   -0.0113719400   -0.0007209000
  -0.0050466100    0.0043224400   -0.0025311300
  -0.0009040700    0.0079700800    0.0003826600
  -0.0049988700    0.0047695100    0.0008190900
  -0.0056145400    0.0056585900   -0.0006186100
   0.1269873600   -0.0525888100    0.0017994600
  -0.0061891900    0.0116411100    0.0002421400
  -0.0010196300   -0.0050813700    0.0001172600
   0.0029708600   -0.0064155900    0.0013277200
   0.0040852100   -0.0078869900   -0.0007459500

1    
 -0.0050000000000000   0.0000000000000000   0.0000000000000000
   0.3240623900   -0.0151350300   -0.0001981200
  -0.0514485900    0.0084209900   -0.0002427300
  -0.1247959300   -0.0540125700    0.0005832700
  -0.0231079100    0.0107092000    0.0003823000
  -0.0056279300   -0.0179908600   -0.0001729900
   0.0142870100    0.0150086800   -0.0008220600
  -0.0038627900   -0.0000185300   -0.0027686100
  -0.0001360600    0.0101060900    0.0002499500
  -0.0047146300    0.0064717300    0.0005467700
  -0.0058011400    0.0071278500    0.0000232100
  -0.1142484200    0.0585546200    0.0015257100
  -0.0040326800   -0.0153072200    0.0002303200
  -0.0050814500   -0.0019269700    0.0001337300
   0.0001559100   -0.0032269300    0.0012612100
   0.0043522100   -0.0087810500   -0.0007319400

1    
  0.0000000000000000   0.0050000000000000   0.0000000000000000
   0.0125245300   -0.3170069700    0.0008064900
   0.0199700300    0.1512131900   -0.0007266200
   0.0270423500    0.0770460000    0.0000401800
   0.0115306500   -0.0237638400    0.0006431100
   0.0138338600    0.0138117100   -0.0003965100
  -0.0311590900    0.0160831200   -0.0007100200
   0.0091697400    0.0126903600   -0.0028591000
   0.0004873400    0.0082185500    0.0003647800
  -0.0043976500    0.0076401200    0.0007649900
  -0.0049111300    0.0070159700   -0.0004843400
  -0.0480507200    0.0601405400    0.0015938300
  -0.0061730100    0.0030567000    0.0002527800
  -0.0040997300   -0.0038286100    0.0001459900
  -0.0004149200   -0.0043609700    0.0013319300
   0.0046477400   -0.0079558800   -0.0007675000

1    
  0.0000000000000000  -0.0050000000000000   0.0000000000000000
  -0.0148963200    0.3243660200   -0.0002604300
  -0.0100364900   -0.1641865700    0.0000755100
  -0.0247019900   -0.0784183000    0.0001419400
  -0.0047523800    0.0269452500    0.0000664800
  -0.0110457400   -0.0268066200   -0.0001156300
   0.0328848100   -0.0125681100   -0.0008333000
  -0.0180007000   -0.0082875400   -0.0024227600
  -0.0015223800    0.0098883700    0.0002652400
  -0.0053219600    0.0036110000    0.0005914600
  -0.0065062300    0.0057884500   -0.0001065200
   0.0626466400   -0.0563890000    0.0017283700
  -0.0040663600   -0.0067692900    0.0002190900
  -0.0019949700   -0.0031781500    0.0001041900
   0.0035275200   -0.0052760100    0.0012568700
   0.0037865400   -0.0087195100   -0.0007105300

1    
  0.0000000000000000   0.0000000000000000   0.0050000000000000
  -0.0007739700    0.0016357800   -0.0607568700
   0.0048430400   -0.0036664800    0.0283872400
   0.0004828900   -0.0012165900    0.0306797300
   0.0031032200    0.0019579700   -0.0034917900
   0.0012567200   -0.0067762500    0.0026763500
   0.0010991000    0.0018066700   -0.0046002800
  -0.0039396700    0.0021970400   -0.0050758300
  -0.0006703100    0.0092214900    0.0002401400
  -0.0050552600    0.0053830700    0.0006647400
  -0.0059276300    0.0063845200   -0.0002482800
   0.0080407300    0.0015963600    0.0180790200
  -0.0051126800   -0.0018525500   -0.0012505900
  -0.0030654900   -0.0035030900   -0.0032252400
   0.0015007800   -0.0048242800   -0.0018390900
   0.0042185300   -0.0083436500   -0.0002392400

1    
  0.0000000000000000   0.0000000000000000  -0.0050000000000000
  -0.0017558400    0.0005689200    0.0613117900
   0.0053405500   -0.0034674900   -0.0290642800
   0.0005052100   -0.0005991500   -0.0304781100
   0.0037538000    0.0011755800    0.0042017300
   0.0015708400   -0.0061482100   -0.0031892300
   0.0004100100    0.0018287100    0.0030572800
  -0.0049888300    0.0020699900   -0.0002226500
  -0.0003681700    0.0088698300    0.0003938100
  -0.0046646500    0.0058585100    0.0007027600
  -0.0054888000    0.0064091500   -0.0003492800
   0.0079905200    0.0018622400   -0.0147526400
  -0.0051119100   -0.0017723300    0.0017221500
  -0.0030301600   -0.0035050600    0.0034767800
   0.0016156400   -0.0048202700    0.0044282500
   0.0042218000   -0.0083304400   -0.0012383500

2    
  0.0050000000000000   0.0000000000000000   0.0000000000000000
   0.0552695700    0.0157979700    0.0000316300
  -0.3291040100   -0.0133928600    0.0006068100
  -0.0125533900    0.0132231700    0.0003802700
   0.0100134400   -0.0105333200    0.0004623700
   0.0287644500    0.0023661300   -0.0004853600
   0.1337945800   -0.0580529400   -0.0011173200
  -0.0025638400    0.0025953700   -0.0028150000
  -0.0006021300    0.0090959300    0.0003111300
  -0.0047469800    0.0060869000    0.0006638200
  -0.0054672800    0.0064278600   -0.0003386400
   0.0064069800   -0.0114193700    0.0017103400
   0.1185594600    0.0517769000   -0.0000892900
  -0.0050111900   -0.0019393300    0.0001666300
   0.0014647000   -0.0051709000    0.0013028100
   0.0057756300   -0.0068615000   -0.0007902000

2    
 -0.0050000000000000   0.0000000000000000   0.0000000000000000
  -0.0577028200   -0.0142004600    0.0005283000
   0.3390054500    0.0109178300   -0.0012837900
   0.0137759300   -0.0148182100   -0.0001882500
  -0.0031109500    0.0136077900    0.0002477100
  -0.0256785800   -0.0152326600   -0.0000296900
  -0.1291819400    0.0592957800   -0.0004373100
  -0.0063643400    0.0016865400   -0.0024776800
  -0.0004376500    0.0089983700    0.0003204100
  -0.0049754400    0.0051548200    0.0007017200
  -0.0059491200    0.0063695900   -0.0002567500
   0.0091768500    0.0151878400    0.0016154300
  -0.1318135800   -0.0576107900    0.0005769100
  -0.0010686400   -0.0050635300    0.0000844100
   0.0016419700   -0.0044786600    0.0012867400
   0.0026828600   -0.0098142600   -0.0006881500

2    
  0.0000000000000000   0.0050000000000000   0.0000000000000000
  -0.0131028000    0.1614867700    0.0001715000
  -0.0073159900   -0.3222517200    0.0003126700
   0.0338633400    0.0114155400   -0.0002279200
  -0.0079856300    0.0223508600    0.0001667000
  -0.0086941000   -0.0326618200   -0.0001609900
  -0.0305952500    0.0852420800   -0.0006616100
  -0.0039457600    0.0013498200   -0.0030152500
  -0.0006916900    0.0091085400    0.0002557200
  -0.0049228500    0.0058037400    0.0010181100
  -0.0060433000    0.0066920200   -0.0001842900
   0.0089899300    0.0073098600    0.0016555100
   0.0491595600    0.0546027200   -0.0000215300
  -0.0159934600    0.0020921500    0.0001537300
   0.0011051100   -0.0044880100    0.0012887500
   0.0061728800   -0.0080525200   -0.0007511200

2    
  0.0000000000000000  -0.0050000000000000   0.0000000000000000
   0.0107618300   -0.1539124300    0.0003703700
   0.0170171600    0.3093902800   -0.0009655500
  -0.0323772500   -0.0129198900    0.0004143400
   0.0147716100   -0.0191796200    0.0005421400
   0.0114727800    0.0196750800   -0.0003515200
   0.0332704500   -0.0819023400   -0.0008832500
  -0.0049828300    0.0029176800   -0.0022790500
  -0.0003504200    0.0089879500    0.0003752800
  -0.0047961500    0.0054393600    0.0003475400
  -0.0053744400    0.0061102800   -0.0004074500
   0.0065735600   -0.0034837500    0.0016695700
  -0.0602419000   -0.0581544000    0.0004968200
   0.0099874000   -0.0091890900    0.0000971400
   0.0019993100   -0.0051533500    0.0013005800
   0.0022689100   -0.0086257700   -0.0007269600

2    
  0.0000000000000000   0.0000000000000000   0.0050000000000000
  -0.0012458500    0.0004572900    0.0290071900
   0.0059274900   -0.0031697700   -0.0622683600
   0.0005643300   -0.0007766700   -0.0027719200
   0.0034419200    0.0015682900    0.0031542200
   0.0012779800   -0.0065091800   -0.0040579100
   0.0003180300    0.0021344500    0.0283667600
  -0.0040800100    0.0019777200   -0.0062086500
  -0.0006933400    0.0091396600    0.0004138900
  -0.0047435100    0.0061960300    0.0007300700
  -0.0059894200    0.0056635900   -0.0002705500
   0.0077716800    0.0019388300    0.0003561300
  -0.0052568200   -0.0019324600    0.0169120300
  -0.0030349800   -0.0035169700   -0.0011496900
   0.0015614600   -0.0048189900    0.0018274300
   0.0041810300   -0.0083518200   -0.0040406300

2    
  0.0000000000000000   0.0000000000000000  -0.0050000000000000
  -0.0010599000    0.0012612800   -0.0284445500
   0.0040333600   -0.0044489100    0.0615927300
   0.0007133000   -0.0008305700    0.0029636900
   0.0033874400    0.0015457700   -0.0024441300
   0.0015712600   -0.0064552500    0.0035460600
   0.0008925200    0.0017656900   -0.0299076100
  -0.0048434000    0.0023018100    0.0009167700
  -0.0003440500    0.0089555000    0.0002178400
  -0.0049804900    0.0050474400    0.0006373000
  -0.0054285000    0.0071366700   -0.0003267800
   0.0078061300    0.0017950400    0.0029696300
  -0.0045038500   -0.0014306100   -0.0164462500
  -0.0030593900   -0.0034991300    0.0014005500
   0.0015485200   -0.0048242700    0.0007620000
   0.0042670500   -0.0083204600    0.0025627600

3    
  0.0050000000000000   0.0000000000000000   0.0000000000000000
   0.1241805200    0.0258474300    0.0002815300
  -0.0081107000    0.0293235800   -0.0004125400
  -0.3085489600   -0.0001549000    0.0014976300
   0.1287266800   -0.0260321900   -0.0008202000
  -0.0132780900   -0.0388723600   -0.0000421200
   0.0297214300    0.0013574100   -0.0009216300
   0.0350129500    0.0037932000   -0.0027095600
  -0.0007632200   -0.0050160200   -0.0004516000
  -0.0043651800    0.0164158800    0.0017750800
  -0.0053947600    0.0103892700   -0.0005824800
   0.0170337200    0.0079568000    0.0015646100
  -0.0060784200   -0.0024064500    0.0001745700
  -0.0023773000   -0.0035101900    0.0001247800
   0.0109551100   -0.0114658400    0.0012353300
   0.0032862100   -0.0076256100   -0.0007133800

3    
 -0.0050000000000000   0.0000000000000000   0.0000000000000000
  -0.1297422500   -0.0259098000    0.0003039100
   0.0182203200   -0.0369145100   -0.0002635100
   0.3100504800    0.0032380500   -0.0012862900
  -0.1188475700    0.0269719000    0.0015069900
   0.0161289700    0.0258593700   -0.0004736900
  -0.0281830200    0.0023489400   -0.0006215200
  -0.0439189100    0.0002766600   -0.0025474900
  -0.0002938500    0.0231425300    0.0010625800
  -0.0053731300   -0.0051663900   -0.0004336700
  -0.0060404100    0.0023820000   -0.0000225200
  -0.0016087200   -0.0042628300    0.0017630500
  -0.0041386300   -0.0012111100    0.0002974200
  -0.0037239900   -0.0034890700    0.0001268400
  -0.0076842300    0.0017877000    0.0013521000
   0.0051549500   -0.0090534400   -0.0007642000

3    
  0.0000000000000000   0.0050000000000000   0.0000000000000000
   0.0526654400    0.0786924200   -0.0000251400
   0.0190465000    0.0083514300   -0.0003065100
  -0.0011440800   -0.2986358300   -0.0014084500
  -0.0500742600    0.0798556800    0.0007045100
  -0.0115517400    0.0076351900   -0.0000637300
  -0.0000360300    0.0001978800   -0.0006262100
  -0.0049181600    0.1032653100   -0.0033076300
  -0.0001257900    0.0151349000    0.0011958800
  -0.0040924000    0.0121368900    0.0017372000
  -0.0049978200    0.0135731300    0.0002590000
   0.0001844700   -0.0020490100    0.0014548100
  -0.0053113300    0.0007185200    0.0001541900
  -0.0030786600   -0.0038014400    0.0000726700
   0.0089177700   -0.0092386400    0.0009866000
   0.0045161000   -0.0058364300   -0.0008272000

3    
  0.0000000000000000  -0.0050000000000000   0.0000000000000000
  -0.0560450800   -0.0767715200    0.0005933700
  -0.0090012400   -0.0159787600   -0.0003645300
   0.0022470400    0.2941861600    0.0015451500
   0.0580746500   -0.0770394900    0.0000002800
   0.0144766300   -0.0206772100   -0.0004479100
   0.0015642700    0.0033956800   -0.0009148600
  -0.0039730700   -0.0956460800   -0.0019678400
  -0.0009604200    0.0030439200   -0.0005640800
  -0.0055796000   -0.0008148900   -0.0003878200
  -0.0063945600   -0.0006933900   -0.0008002100
   0.0154098800    0.0057860000    0.0018672100
  -0.0049168800   -0.0043474700    0.0003170600
  -0.0030226100   -0.0031939500    0.0001772400
  -0.0058151100   -0.0003953200    0.0015988100
   0.0039361100   -0.0108537000   -0.0006518700

3    
  0.0000000000000000   0.0000000000000000   0.0050000000000000
  -0.0014878500    0.0010794500    0.0308553200
   0.0053333900   -0.0040816600   -0.0032029100
   0.0020321900   -0.0024240800   -0.0793377900
   0.0025873800    0.0018941600    0.0317393500
   0.0012887700   -0.0063717600   -0.0033255200
   0.0005965900    0.0016968800    0.0023950600
  -0.0045823100    0.0031306100    0.0285572500
  -0.0010485500    0.0055745200    0.0009670900
  -0.0042269100   -0.0038558000    0.0000994200
  -0.0057394800    0.0198944100   -0.0015321800
   0.0078112200    0.0018308500    0.0000156800
  -0.0051173800   -0.0017794400   -0.0031863700
  -0.0030517400   -0.0034897300    0.0005865100
   0.0014039500   -0.0047784800   -0.0003449600
   0.0042007300   -0.0083199500   -0.0042859600

3    
  0.0000000000000000   0.0000000000000000  -0.0050000000000000
  -0.0004958700    0.0011815800   -0.0303023800
   0.0047648900   -0.0034392100    0.0025329600
  -0.0007514500    0.0005272200    0.0795190800
   0.0038983000    0.0013971900   -0.0310218700
   0.0015730600   -0.0065725000    0.0028159000
   0.0009400300    0.0019788200   -0.0039403900
  -0.0043556100    0.0010252300   -0.0338671900
   0.0000086300    0.0125297500   -0.0003286800
  -0.0054851700    0.0151153700    0.0012768200
  -0.0056687700   -0.0070604300    0.0009410600
   0.0077603200    0.0018958400    0.0033090900
  -0.0051011800   -0.0018443600    0.0036591000
  -0.0030493000   -0.0035109600   -0.0003360800
   0.0017204500   -0.0048603800    0.0029346200
   0.0042416600   -0.0083631400    0.0028079500

4    
  0.0050000000000000   0.0000000000000000   0.0000000000000000
   0.0253561600    0.0091684200   -0.0000439900
   0.0115953600   -0.0151218700   -0.0003074800
   0.1230049400   -0.0537236800   -0.0005455400
  -0.3208862900   -0.0150403700    0.0031597300
   0.0579414500    0.0084122400   -0.0005088100
  -0.0117243400    0.0156566300   -0.0007141000
  -0.0061460300   -0.0002052100   -0.0028049100
  -0.0008063600    0.0099684400    0.0003018400
  -0.0049978300    0.0063739400    0.0005129400
  -0.0055988100    0.0069751900    0.0000005300
   0.0093235000    0.0034487200    0.0015765200
  -0.0052552000   -0.0022372500    0.0002478100
  -0.0009589100   -0.0019880000    0.0000704200
   0.1263139700    0.0500081300   -0.0001983500
   0.0028383800   -0.0216953300   -0.0007466200

4    
 -0.0050000000000000   0.0000000000000000   0.0000000000000000
  -0.0279580400   -0.0071202800    0.0006065400
  -0.0015269400    0.0076447700   -0.0003653100
  -0.1245690800    0.0544265000    0.0007651500
   0.3277807400    0.0131988400   -0.0024201400
  -0.0550161300   -0.0208347000   -0.0000074100
   0.0133314300   -0.0120260000   -0.0008284600
  -0.0028104300    0.0044993300   -0.0024952900
  -0.0002466600    0.0081371900    0.0003293500
  -0.0047230900    0.0048460000    0.0008569300
  -0.0058156400    0.0058044500   -0.0005969000
   0.0062440400    0.0002753000    0.0017489900
  -0.0049589600   -0.0013712400    0.0002243900
  -0.0051428500   -0.0050208500    0.0001809000
  -0.1201940200   -0.0574315500    0.0027338000
   0.0056056400    0.0049722500   -0.0007325500

4    
  0.0000000000000000   0.0050000000000000   0.0000000000000000
  -0.0103319900   -0.0242663800    0.0006703200
  -0.0069836700    0.0169760600   -0.0003240500
  -0.0264270400    0.0778132600    0.0003464900
  -0.0104912400   -0.3186189300    0.0010912300
  -0.0109321200    0.1510457800   -0.0005354700
   0.0332578200    0.0149889100   -0.0011053000
  -0.0181304400    0.0142814000   -0.0026047500
  -0.0006344000    0.0119553200    0.0003321300
  -0.0059136100    0.0049501100    0.0008164100
  -0.0067223900    0.0061479500   -0.0005175000
   0.0097199100    0.0021828300    0.0016709600
  -0.0055202300   -0.0014136800    0.0002119600
  -0.0020499500   -0.0038783600    0.0001362400
   0.0557192900    0.0509239700    0.0005479900
   0.0054400600   -0.0030882500   -0.0007366700

4    
  0.0000000000000000  -0.0050000000000000   0.0000000000000000
   0.0080489700    0.0264377700   -0.0001113500
   0.0171599800   -0.0245485500   -0.0003489700
   0.0265684700   -0.0790930000   -0.0001511600
   0.0177419500    0.3270530200   -0.0004013800
   0.0138003000   -0.1695526700    0.0000463700
  -0.0319132900   -0.0114654900   -0.0004356300
   0.0091220500   -0.0098644400   -0.0026749800
  -0.0004168100    0.0061556600    0.0002928600
  -0.0038189700    0.0063012900    0.0005501500
  -0.0047016900    0.0066575600   -0.0000800800
   0.0058633400    0.0015459400    0.0016545700
  -0.0046906100   -0.0022010300    0.0002602200
  -0.0040575600   -0.0031313300    0.0001140000
  -0.0517290600   -0.0606056600    0.0020270500
   0.0030229400   -0.0136890900   -0.0007416700

4    
  0.0000000000000000   0.0000000000000000   0.0050000000000000
  -0.0012089100    0.0013576300   -0.0035676800
   0.0051756500   -0.0039440500    0.0024623000
  -0.0003653700   -0.0005596600    0.0314749700
   0.0063064100    0.0023404500   -0.0608783200
   0.0013117600   -0.0065875200    0.0281784300
   0.0005340100    0.0016483200   -0.0046431400
  -0.0050069000    0.0022471900   -0.0041970800
  -0.0003275200    0.0088975500   -0.0002547200
  -0.0046455500    0.0059595300    0.0002555700
  -0.0055639900    0.0061014800   -0.0007348100
   0.0077875000    0.0018406900   -0.0014300200
  -0.0050998200   -0.0018087700    0.0007705300
  -0.0031000000   -0.0035204000   -0.0031180500
  -0.0000200100   -0.0057473800    0.0179224200
   0.0042227300   -0.0082250700   -0.0022403900

4    
  0.0000000000000000   0.0000000000000000  -0.0050000000000000
  -0.0011505200    0.0007812600    0.0041258700
   0.0049629000   -0.0035688600   -0.0031358800
   0.0019616200   -0.0012650500   -0.0312862600
   0.0007255100    0.0008481400    0.0615792700
   0.0014843300   -0.0059556300   -0.0286947800
   0.0010225200    0.0019851700    0.0030981400
  -0.0039344700    0.0020215100   -0.0011013800
  -0.0007177100    0.0092045700    0.0008856000
  -0.0050770000    0.0052766400    0.0011163900
  -0.0058529700    0.0066916900    0.0001350700
   0.0077902300    0.0018814200    0.0047556600
  -0.0051181300   -0.0018063200   -0.0002980500
  -0.0030069200   -0.0034877000    0.0033690900
   0.0026831900   -0.0041448000   -0.0153116200
   0.0042274300   -0.0084620500    0.0007628900

5    
  0.0050000000000000   0.0000000000000000   0.0000000000000000
   0.0058763200    0.0134776100    0.0001228600
   0.0321633100   -0.0138079800   -0.0004802800
  -0.0140196600   -0.0138149500   -0.0000459700
   0.0599238700   -0.0110748000    0.0002671300
  -0.3306165700    0.0092825400    0.0020149300
   0.1317031900    0.0573828300   -0.0016380900
  -0.0022550500    0.0011207300   -0.0025847600
  -0.0004814300    0.0082624600    0.0003565800
  -0.0047838200    0.0056782100    0.0007065000
  -0.0054341800    0.0065151500   -0.0002789300
   0.0077394400    0.0022083700    0.0016652300
  -0.0036600000   -0.0033126100    0.0002285600
  -0.0047397300   -0.0048923100    0.0000846100
   0.0004985500    0.0087462500    0.0012437000
   0.1280857600   -0.0657715000   -0.0016620700

5    
 -0.0050000000000000   0.0000000000000000   0.0000000000000000
  -0.0082809800   -0.0114028200    0.0004376100
  -0.0222835900    0.0063646300   -0.0001905600
   0.0153897600    0.0122103000    0.0002383400
  -0.0530286500    0.0136646000    0.0004417500
   0.3340088200   -0.0172038000   -0.0025321500
  -0.1333735000   -0.0560816700    0.0001303300
  -0.0066761600    0.0031631400   -0.0027071400
  -0.0005596300    0.0098360200    0.0002735200
  -0.0049407700    0.0055612200    0.0006615600
  -0.0059849900    0.0062821700   -0.0003184400
   0.0078495500    0.0015076700    0.0016605000
  -0.0065736200   -0.0003022400    0.0002432400
  -0.0013846900   -0.0021127100    0.0001667000
   0.0026161300   -0.0183374400    0.0013438100
  -0.1167776900    0.0468509200    0.0001509400

5    
  0.0000000000000000   0.0050000000000000   0.0000000000000000
   0.0103975300    0.0213915900   -0.0000347500
   0.0138903700   -0.0299533700   -0.0003648100
  -0.0318126200    0.0134084400    0.0001946800
   0.0181256600    0.1646441500    0.0000280500
   0.0146696700   -0.3273856100    0.0003077600
   0.0302046600    0.0825750300   -0.0010085700
  -0.0057739900    0.0003894400   -0.0030720100
  -0.0003542900    0.0090734500    0.0005969800
  -0.0043761200    0.0056529400    0.0005279200
  -0.0050597700    0.0065354800   -0.0000223100
   0.0082726600    0.0021801700    0.0016562000
  -0.0070932100   -0.0014407700    0.0002458800
   0.0100720700    0.0018054000   -0.0000039800
   0.0004976900    0.0003290100    0.0013060900
  -0.0516602900    0.0507946500   -0.0003571400

5    
  0.0000000000000000  -0.0050000000000000   0.0000000000000000
  -0.0126917900   -0.0192239800    0.0005926400
  -0.0037082400    0.0223815000   -0.0003091000
   0.0329171100   -0.0148997500   -0.0000060600
  -0.0111235500   -0.1559579600    0.0006603400
  -0.0118260900    0.3089662400   -0.0007986100
  -0.0296623900   -0.0791357000   -0.0005240800
  -0.0031605500    0.0038745900   -0.0022227500
  -0.0006911600    0.0090233400    0.0000341600
  -0.0053425200    0.0055891700    0.0008372400
  -0.0063528300    0.0062664500   -0.0005682500
   0.0073192000    0.0015410400    0.0016694700
  -0.0031240900   -0.0021758700    0.0002260300
  -0.0162684600   -0.0088990100    0.0002557600
   0.0026352800   -0.0098736100    0.0012820600
   0.0610800700   -0.0674764700   -0.0011288500

5    
  0.0000000000000000   0.0000000000000000   0.0050000000000000
  -0.0012515000    0.0009190700    0.0032125800
   0.0048289600   -0.0036812400   -0.0041390600
   0.0008696200   -0.0006096200   -0.0029754800
   0.0031493100    0.0010670400    0.0287935700
   0.0037795700   -0.0059627600   -0.0621821100
  -0.0000090000    0.0014422600    0.0284106200
  -0.0049168400    0.0019865500   -0.0053180500
  -0.0005006300    0.0092872500    0.0001397600
  -0.0045929200    0.0059294300    0.0006430600
  -0.0056717300    0.0057849400   -0.0004143500
   0.0077924000    0.0018601200    0.0021928600
  -0.0051270500   -0.0018044100   -0.0031412400
  -0.0030593300   -0.0034986700   -0.0011320700
   0.0015759300   -0.0049071400   -0.0001011500
   0.0031332100   -0.0078128200    0.0160110400

5    
  0.0000000000000000   0.0000000000000000  -0.0050000000000000
  -0.0010827000    0.0011994500   -0.0026532300
   0.0052860400   -0.0038716600    0.0034649400
   0.0004377000   -0.0009935700    0.0031655500
   0.0036487600    0.0016478000   -0.0280796900
  -0.0007679800   -0.0070685700    0.0616656800
   0.0018637200    0.0024421600   -0.0299649600
  -0.0040171400    0.0022891200    0.0000251700
  -0.0005387100    0.0088117200    0.0004910500
  -0.0051327600    0.0053113000    0.0007253700
  -0.0057466200    0.0070141600   -0.0001840300
   0.0077924500    0.0018629900    0.0011327600
  -0.0050987400   -0.0018084000    0.0036134600
  -0.0030488400   -0.0035152900    0.0013824600
   0.0015438300   -0.0047218400    0.0026914200
   0.0048609900   -0.0085993800   -0.0174759600

6    
  0.0050000000000000   0.0000000000000000   0.0000000000000000
  -0.0147316500   -0.0309288400    0.0006241800
   0.1349245400   -0.0345563400   -0.0006171400
   0.0296019900   -0.0016338800   -0.0000758100
  -0.0091059200    0.0341856500    0.0001101900
   0.1356444600    0.0245964800   -0.0012109700
  -0.3071883700   -0.0005426100    0.0007211500
  -0.0041218400    0.0026249800   -0.0026079500
  -0.0006512000    0.0091508800    0.0001729300
  -0.0051246800    0.0056243100    0.0008810900
  -0.0062093000    0.0064498700   -0.0003632400
   0.0068309700    0.0026130300    0.0016527600
   0.0035140500   -0.0089673200    0.0001765600
   0.0230798300   -0.0016402700    0.0000681800
   0.0005894800   -0.0054845100    0.0012706200
   0.0129476300   -0.0014914200   -0.0008025600

6    
 -0.0050000000000000   0.0000000000000000   0.0000000000000000
   0.0123868100    0.0331108000   -0.0000648700
  -0.1280516800    0.0293410100   -0.0000421800
  -0.0283030600   -0.0000342100    0.0002675400
   0.0159478800   -0.0309872000    0.0005986700
  -0.1294344500   -0.0353023300    0.0006625700
   0.3085822400   -0.0011108800   -0.0022389800
  -0.0048098800    0.0016374200   -0.0026858300
  -0.0003901500    0.0089449100    0.0004581200
  -0.0045976300    0.0056159600    0.0004858700
  -0.0052079300    0.0063477200   -0.0002324200
   0.0087518700    0.0011132700    0.0016723800
  -0.0138883700    0.0053960300    0.0002966100
  -0.0291601300   -0.0047747100    0.0001820700
   0.0025231900   -0.0041536800    0.0013183400
  -0.0043487000   -0.0151441200   -0.0006779000

6    
  0.0000000000000000   0.0050000000000000   0.0000000000000000
  -0.0144006100    0.0154421000    0.0002690400
  -0.0541620500    0.0798891800   -0.0001525900
   0.0001512300   -0.0023983800   -0.0000450000
   0.0173035500    0.0148422300    0.0001870700
   0.0586273300    0.0744140000   -0.0007606700
   0.0011606500   -0.3381210200   -0.0001318900
  -0.0040737900    0.0028131700   -0.0023184700
  -0.0004908800    0.0089993700    0.0002633500
  -0.0050109500    0.0056649700    0.0006468900
  -0.0058046500    0.0065286300   -0.0004114500
   0.0079773800    0.0044715200    0.0016401900
   0.0022411000   -0.0068590600    0.0002331300
  -0.0015252900    0.1498682500   -0.0000399400
   0.0014759600   -0.0021817900    0.0012717200
  -0.0034689800   -0.0133731700   -0.0006513700

6    
  0.0000000000000000  -0.0050000000000000   0.0000000000000000
   0.0119802300   -0.0132037400    0.0002900300
   0.0631581100   -0.0872628500   -0.0005163500
   0.0011399500    0.0008053500    0.0002352500
  -0.0103818800   -0.0116163400    0.0005212900
  -0.0548019600   -0.0872962500    0.0002399300
   0.0005898000    0.3463209000   -0.0014134200
  -0.0048577100    0.0014539000   -0.0029758400
  -0.0005479800    0.0090967100    0.0003682000
  -0.0047124900    0.0055765900    0.0007205300
  -0.0056125500    0.0062710900   -0.0001837200
   0.0076002800   -0.0007372800    0.0016854400
  -0.0124399700    0.0032589100    0.0002389800
  -0.0046493600   -0.1619310900    0.0002988200
   0.0016427300   -0.0074489500    0.0013173000
   0.0118928200   -0.0032869400   -0.0008264400

6    
  0.0000000000000000   0.0000000000000000   0.0050000000000000
  -0.0011361800    0.0011158600   -0.0035488000
   0.0049088000   -0.0037292600    0.0287980800
   0.0004974200   -0.0006703100    0.0032643600
   0.0034929500    0.0012181800   -0.0035156200
   0.0003517900   -0.0067833600    0.0289360400
   0.0022427300    0.0023691900   -0.0614175200
  -0.0044737300    0.0020520500   -0.0020726300
  -0.0005388100    0.0090050100    0.0003055400
  -0.0048265400    0.0055206800    0.0006897800
  -0.0057164900    0.0065101100   -0.0002751100
   0.0078004600    0.0018441700   -0.0017257900
  -0.0051520400   -0.0017821100   -0.0012978200
  -0.0031091000   -0.0034434300    0.0162698800
   0.0015152700   -0.0048323300   -0.0021713400
   0.0041434600   -0.0083944600   -0.0022390400

6    
  0.0000000000000000   0.0000000000000000  -0.0050000000000000
  -0.0012386600    0.0009943600    0.0041086900
   0.0055872800   -0.0039527300   -0.0294761200
   0.0007977000   -0.0009575100   -0.0030711100
   0.0033799500    0.0018899400    0.0042256800
   0.0021212200   -0.0063001900   -0.0294395800
  -0.0007161400    0.0010871100    0.0598714500
  -0.0044625700    0.0022087400   -0.0032265200
  -0.0005001000    0.0090899100    0.0003272300
  -0.0048954000    0.0057180400    0.0006796200
  -0.0056997100    0.0062851000   -0.0003210500
   0.0077834400    0.0018865300    0.0050517400
  -0.0050791700   -0.0018344100    0.0017695400
  -0.0029863800   -0.0030306700   -0.0160219400
   0.0015968500   -0.0048015300    0.0047603300
   0.0043117000   -0.0082827000    0.0007620500

7    
  0.0050000000000000   0.0000000000000000   0.0000000000000000
  -0.0017742400    0.0146121200    0.0008032000
   0.0069671200   -0.0032425500    0.0000466400
   0.0400692100   -0.0011356200   -0.0000598900
   0.0017606100   -0.0120760300   -0.0001823900
   0.0036225700   -0.0077795200   -0.0007049900
   0.0011122300    0.0022211100   -0.0007778700
  -0.2695543800    0.0045802000   -0.0008230400
   0.1190841200   -0.0308490000    0.0263665300
   0.0730874600    0.0340961700   -0.0546567200
   0.0211220100    0.0158866200    0.0273554100
   0.0074616600    0.0025865900    0.0013903800
  -0.0050815000   -0.0011946100    0.0002072000
  -0.0031431200   -0.0035164000    0.0001311100
   0.0010315500   -0.0051657000    0.0016084200
   0.0042347100   -0.0090233700   -0.0007039900

7    
 -0.0050000000000000   0.0000000000000000   0.0000000000000000
  -0.0005883600   -0.0125591100   -0.0002452500
   0.0031678700   -0.0042798500   -0.0007166200
  -0.0388644200   -0.0001922700    0.0001674400
   0.0050940000    0.0151757900    0.0008907100
  -0.0007997800   -0.0051668000    0.0001952000
   0.0004239500    0.0014378700   -0.0007665100
   0.2633794300   -0.0032156600   -0.0015070500
  -0.1232482100    0.0507185700   -0.0268449900
  -0.0819979900   -0.0219601000    0.0545074000
  -0.0328826800   -0.0030473300   -0.0282054200
   0.0081204700    0.0011275300    0.0019343100
  -0.0051354100   -0.0024190900    0.0002653200
  -0.0029580000   -0.0034853700    0.0001192800
   0.0020830700   -0.0044851800    0.0009798400