14   
84   

1    
  0.0100000000000000   0.0000000000000000   0.0000000000000000
  -0.6426443700    0.0210340200   -0.0002598800
   0.1105326200   -0.0489908800   -0.0008404300
  -0.0124094100   -0.0308945900    0.0007837600
   0.0095638000    0.0147414100   -0.0013463100
   0.0441460900   -0.0034568000   -0.0016824000
   0.2377276800    0.1058300300   -0.0002568100
   0.2626336900   -0.0796330900   -0.0061186000
  -0.0066499000    0.0247591400    0.0003685400
   0.0043659800   -0.0018237900    0.0038097000
   0.0017327000    0.0009969000    0.0005892200
  -0.0006033000    0.0040829700   -0.0046734000
   0.0023751300   -0.0040142900   -0.0011805200
  -0.0050482400   -0.0068902200   -0.0017242800
  -0.0057224800    0.0042591800    0.0125314100

1    
 -0.0100000000000000   0.0000000000000000   0.0000000000000000
   0.6495279300   -0.0380613700   -0.0031120400
  -0.1153636600    0.0487310500   -0.0016860700
   0.0138505800    0.0298320300    0.0006609700
  -0.0076050700   -0.0162541000   -0.0011490800
  -0.0424820300    0.0045872700   -0.0016804700
  -0.2295682900   -0.1089211000    0.0043314600
  -0.2723168400    0.1026735400   -0.0033682000
   0.0027639800   -0.0244959100    0.0006033600
  -0.0045175800    0.0028817800    0.0038159100
   0.0027858000   -0.0000993900    0.0004872000
  -0.0077486900    0.0093037600   -0.0047841400
   0.0064341600   -0.0004379000    0.0000589400
  -0.0028124800    0.0005262500    0.0001331600
   0.0070521900   -0.0102659000    0.0056890000

1    
  0.0000000000000000   0.0100000000000000   0.0000000000000000
   0.0263025600   -0.6413148200   -0.0006550800
   0.0004083300    0.3125451400   -0.0021237600
  -0.0652565700    0.0185956900    0.0004668700
   0.0219180800    0.0409318000   -0.0013872700
   0.0238419500   -0.0444581300   -0.0013042000
   0.0537560900    0.1589104800    0.0011185300
  -0.0895224100    0.0975299200   -0.0044636600
  -0.0058965500    0.0131143500    0.0003119000
  -0.0013471300   -0.0007019600    0.0037610700
   0.0029447400    0.0013025100    0.0005806600
  -0.0079281500    0.0067260300   -0.0047161000
   0.0077204200   -0.0042991800   -0.0012269700
  -0.0054077200    0.0015665300   -0.0011631400
   0.0384663700    0.0395516500    0.0108011500

1    
  0.0000000000000000  -0.0100000000000000   0.0000000000000000
  -0.0327638200    0.6625080300   -0.0028198700
  -0.0017850000   -0.3362276800   -0.0002758600
   0.0677001700   -0.0198605100    0.0009852900
  -0.0203959600   -0.0428205500   -0.0011053000
  -0.0233430000    0.0458917400   -0.0020632400
  -0.0481328800   -0.1683088600    0.0029650500
   0.0925348900   -0.0836534300   -0.0050891400
   0.0019192900   -0.0131456200    0.0006599500
   0.0012004900    0.0017752700    0.0038616900
   0.0015683900   -0.0004363100    0.0004952500
  -0.0004930700    0.0066721600   -0.0047410500
   0.0011483000   -0.0000347700    0.0000593900
  -0.0024724100   -0.0078636800   -0.0004824000
  -0.0366853900   -0.0444957900    0.0075502400

1    
  0.0000000000000000   0.0000000000000000   0.0100000000000000
   0.0015709800    0.0020019400   -0.1130617300
  -0.0022823800   -0.0005028100    0.0513667400
   0.0017152200   -0.0006182100   -0.0078784300
   0.0006227100   -0.0014882200    0.0031128500
   0.0003374700    0.0010262200   -0.0086528000
  -0.0014083100   -0.0079144900    0.0641573400
   0.0024197000    0.0070482500    0.0246054800
  -0.0019687900    0.0001820600   -0.0025164800
  -0.0000582100    0.0005416000   -0.0020150900
   0.0022633700    0.0004379000    0.0015854500
  -0.0041841000    0.0067068100   -0.0098235400
   0.0038370600   -0.0014085600   -0.0000862600
  -0.0043840000   -0.0038221500   -0.0028363800
   0.0015192700   -0.0021903500    0.0020428500

1    
  0.0000000000000000   0.0000000000000000  -0.0100000000000000
  -0.0012775300   -0.0001595300    0.1096958900
  -0.0015818100    0.0000130600   -0.0539102900
  -0.0002550200   -0.0003257600    0.0093276000
   0.0010798400   -0.0000841600   -0.0056119800
   0.0005026900    0.0002841800    0.0052947000
  -0.0001157500   -0.0048526100   -0.0599493700
   0.0043206400    0.0069518900   -0.0341742900
  -0.0019659200    0.0001696900    0.0034855000
  -0.0000766800    0.0005326900    0.0096437900
   0.0022762000    0.0004449900   -0.0005102100
  -0.0042040400    0.0066656200    0.0003657200
   0.0049687800   -0.0029869900   -0.0010133400
  -0.0034995900   -0.0025403700    0.0012703200
  -0.0001718100   -0.0041126900    0.0160859800

2    
  0.0100000000000000   0.0000000000000000   0.0000000000000000
   0.1136695000    0.0010105800   -0.0020337400
  -0.6639384900   -0.0174499800   -0.0011851800
   0.2871337000   -0.1071397700    0.0010015000
   0.0559077500    0.0298802700   -0.0014620900
   0.0183344500   -0.0258957900   -0.0013035800
  -0.0403899900    0.0155616300    0.0024250800
   0.0030083100   -0.0207539300   -0.0045184400
   0.2161624000    0.1176891000    0.0001831400
  -0.0007435000    0.0021778500    0.0038330000
   0.0047712900    0.0036476400    0.0005389200
  -0.0041120300    0.0059340700   -0.0046710500
   0.0051546700   -0.0021270100   -0.0004283000
  -0.0039548500   -0.0013925100   -0.0008461800
   0.0089967900   -0.0011421400    0.0084669100

2    
 -0.0100000000000000   0.0000000000000000   0.0000000000000000
  -0.1122292900   -0.0012762800   -0.0013341500
   0.6523889700    0.0347014300   -0.0013929600
  -0.2700680300    0.0974630700    0.0004749000
  -0.0532298000   -0.0311384200   -0.0010333900
  -0.0173965800    0.0270419100   -0.0020576800
   0.0396969500   -0.0277653400    0.0017118900
   0.0017488500    0.0358699400   -0.0050344700
  -0.2291191300   -0.1263643600    0.0008076900
   0.0007083100   -0.0011295700    0.0037931000
  -0.0001710100   -0.0027695200    0.0005376600
  -0.0043177900    0.0074126700   -0.0047860800
   0.0036837000   -0.0022496300   -0.0007040300
  -0.0039688700   -0.0050014900   -0.0007458000
  -0.0077262900   -0.0047944100    0.0097633300

2    
  0.0000000000000000   0.0100000000000000   0.0000000000000000
  -0.0499333200    0.3360613800   -0.0019969000
  -0.0250783700   -0.6542373500    0.0004876100
  -0.0479773300    0.1440903800    0.0005999500
  -0.0069975800   -0.0493309400   -0.0009943300
  -0.0205445700    0.0333651900   -0.0023200200
   0.0591027200    0.0308247800    0.0022891800
   0.0030160300    0.0153233400   -0.0048685700
   0.1177211400    0.1393946700    0.0002184800
  -0.0273636500    0.0086836900    0.0037994200
   0.0064070800    0.0018681900    0.0005162600
  -0.0053316000    0.0072437200   -0.0047991700
   0.0036572100   -0.0017047600   -0.0006274100
  -0.0039092300   -0.0029629900    0.0004752400
  -0.0027685400   -0.0086193100    0.0072202600

2    
  0.0000000000000000  -0.0100000000000000   0.0000000000000000
   0.0478833300   -0.3127158400   -0.0014774000
   0.0270294300    0.6312231100   -0.0029094800
   0.0520202500   -0.1449432500    0.0008553500
   0.0085000700    0.0473584700   -0.0014965700
   0.0210731900   -0.0318276200   -0.0010486000
  -0.0587362600   -0.0423374800    0.0018395200
   0.0016952800   -0.0001293600   -0.0046904500
  -0.1272224300   -0.1404132200    0.0007648200
   0.0275644100   -0.0078774600    0.0038284100
  -0.0018589900   -0.0010096200    0.0005598100
  -0.0031079400    0.0061313200   -0.0046592500
   0.0051690600   -0.0026623600   -0.0005095600
  -0.0039938600   -0.0034234100   -0.0020598900
   0.0039844600    0.0026267200    0.0110032800

2    
  0.0000000000000000   0.0000000000000000   0.0100000000000000
   0.0011561400   -0.0009419000    0.0509651400
  -0.0021848600    0.0005325800   -0.1253257300
   0.0001058400   -0.0003578500    0.0583021400
   0.0010313500   -0.0006250300   -0.0087052900
   0.0004530700    0.0005349800    0.0026811600
  -0.0007883400   -0.0069901200   -0.0003868600
   0.0023845400    0.0075188500   -0.0066016900
  -0.0014205000    0.0004709600    0.0339849900
   0.0000029100    0.0004927300    0.0024480400
   0.0022681400    0.0004318900   -0.0058188700
  -0.0041953000    0.0066751400   -0.0038029200
   0.0035105000   -0.0016531100   -0.0000822700
  -0.0038298500   -0.0027557400   -0.0024454200
   0.0015063600   -0.0033334000    0.0047875900

2    
  0.0000000000000000   0.0000000000000000  -0.0100000000000000
   0.0003126300    0.0009033000   -0.0543124400
  -0.0023911800   -0.0028594400    0.1227971700
   0.0002224900    0.0002622400   -0.0568590400
   0.0007182300   -0.0012066600    0.0062148500
   0.0001963500    0.0007670400   -0.0060455100
   0.0003912000   -0.0051674900    0.0045234000
   0.0024066800    0.0074022100   -0.0029517800
  -0.0008004400    0.0011400400   -0.0330261100
  -0.0001156300    0.0005475500    0.0051755700
   0.0022981000    0.0004594700    0.0068969700
  -0.0042261000    0.0067007200   -0.0056555700
   0.0053314300   -0.0027183900   -0.0010551600
  -0.0040928300   -0.0036321600    0.0008551300
  -0.0002509300   -0.0025984300    0.0134425300

3    
  0.0100000000000000   0.0000000000000000   0.0000000000000000
  -0.0125906000   -0.0654644000   -0.0007020000
   0.2686432900   -0.0469211400   -0.0013329700
  -0.6059061300   -0.0021844700    0.0006042300
   0.2460111500    0.0749050600   -0.0011246600
  -0.0316862300    0.0558639600   -0.0026158500
   0.0587034400    0.0010181800    0.0021401500
   0.0001457900    0.0082346100   -0.0047325200
   0.0143718700   -0.0104797900    0.0005039400
   0.0542082900   -0.0267323000    0.0038480100
   0.0195103000    0.0171842900    0.0005109500
  -0.0060478700    0.0043511700   -0.0047500400
   0.0039802000   -0.0018463200   -0.0010656200
  -0.0042020100   -0.0035278600   -0.0001539700
  -0.0051414900   -0.0044009800    0.0088703400

3    
 -0.0100000000000000   0.0000000000000000   0.0000000000000000
   0.0136669600    0.0674924200   -0.0026713500
  -0.2885620800    0.0532471200   -0.0012165200
   0.6144607200   -0.0188465100    0.0008969700
  -0.2343089100   -0.0674910300   -0.0013866200
   0.0323852100   -0.0544126600   -0.0007528200
  -0.0590982700   -0.0133724600    0.0020014200
   0.0046664700    0.0066440000   -0.0048203300
  -0.0189025500    0.0109723500    0.0004653700
  -0.0550891900    0.0298454000    0.0037744200
  -0.0143639200   -0.0160758500    0.0005653400
  -0.0023644400    0.0090426400   -0.0047071000
   0.0048502600   -0.0025246900   -0.0000711600
  -0.0037135400   -0.0028814700   -0.0014320600
   0.0063732800   -0.0016392700    0.0093544300

3    
  0.0000000000000000   0.0100000000000000   0.0000000000000000
  -0.0299836400    0.0201413300   -0.0018287400
  -0.1053462100    0.1432487200   -0.0015730000
   0.0059465700   -0.6770957500    0.0019828800
   0.1273037200    0.1830942900   -0.0015343500
   0.0195296800    0.0391193200   -0.0020413800
   0.0070642700   -0.0121853000    0.0014285800
   0.0019440100    0.0126122300   -0.0048807000
   0.0160539000   -0.0095258500    0.0005317500
  -0.0270639900    0.3012254000    0.0034887500
  -0.0098557900   -0.0095947900    0.0005798500
  -0.0052953300    0.0114627100   -0.0048397900
   0.0049614500   -0.0025061100   -0.0012789100
  -0.0044838100   -0.0037167600   -0.0013762300
  -0.0007748200    0.0037205600    0.0113412900

3    
  0.0000000000000000  -0.0100000000000000   0.0000000000000000
   0.0307465200   -0.0183128200   -0.0015399200
   0.0990805700   -0.1457815900   -0.0009545900
  -0.0107261300    0.6933850900   -0.0005461100
  -0.1194113800   -0.1825803500   -0.0009672900
  -0.0185262900   -0.0371610100   -0.0013303400
  -0.0073302000    0.0001711800    0.0027112900
   0.0028440200    0.0022846300   -0.0046739200
  -0.0199252600    0.0099812700    0.0004390500
   0.0295949800   -0.3201500800    0.0041706900
   0.0143167300    0.0105120500    0.0004972600
  -0.0030964600    0.0019736300   -0.0046189400
   0.0038761100   -0.0018616300    0.0001449300
  -0.0034370100   -0.0026919400   -0.0002036600
   0.0019938100   -0.0097684400    0.0068715500

3    
  0.0000000000000000   0.0000000000000000   0.0100000000000000
   0.0005550200    0.0004575800   -0.0102838200
  -0.0009906400   -0.0012445900    0.0563199300
   0.0007629100    0.0003537100   -0.1129305600
  -0.0000437500   -0.0013538800    0.0563402400
   0.0004422200    0.0003380300   -0.0102832500
  -0.0002185800   -0.0055944900    0.0077442100
   0.0023572800    0.0074231300   -0.0113896200
  -0.0020325900    0.0002220000   -0.0027861500
  -0.0001496700    0.0011961700    0.0322864300
   0.0023391700    0.0004777100   -0.0027325400
  -0.0041540900    0.0066967500   -0.0113415300
   0.0043691900   -0.0023062500   -0.0005598900
  -0.0038856800   -0.0033125100   -0.0007837900
   0.0006492100   -0.0033533600    0.0104003400

3    
  0.0000000000000000   0.0000000000000000  -0.0100000000000000
   0.0004339000    0.0009802000    0.0069219900
  -0.0015145600   -0.0009926800   -0.0588405600
   0.0010549800   -0.0021736600    0.1143825000
   0.0003996100   -0.0010033100   -0.0588295200
   0.0004481900    0.0008725600    0.0069221600
  -0.0001249900   -0.0064656100   -0.0035829200
   0.0024567700    0.0074653100    0.0018359700
  -0.0019324500    0.0001655200    0.0037550300
  -0.0002415100    0.0020317400   -0.0246732600
   0.0022536800    0.0004000800    0.0038080700
  -0.0042600200    0.0067166000    0.0018836400
   0.0044498400   -0.0020595800   -0.0005530800
  -0.0040172500   -0.0030895400   -0.0007768600
   0.0005938000   -0.0028476300    0.0077468400

4    
  0.0100000000000000   0.0000000000000000   0.0000000000000000
   0.0090415100    0.0218816200   -0.0019108300
   0.0521087900   -0.0086345700   -0.0011074400
   0.2363973100    0.1182386200    0.0005124200
  -0.6702252700    0.0290837100   -0.0017494800
   0.1135276000   -0.0481894200   -0.0012874400
  -0.0195332200   -0.0400350800    0.0016739600
   0.0021549800    0.0079728800   -0.0048174700
   0.0019804400   -0.0024584700    0.0004892800
  -0.0058563300   -0.0042000200    0.0037974600
   0.2800956800   -0.0968217900    0.0009153400
  -0.0090905900    0.0322830700   -0.0049611300
   0.0048252500   -0.0039404000   -0.0007976600
  -0.0033843400   -0.0032469800   -0.0009106700
   0.0079582100   -0.0019331600    0.0101536600

4    
 -0.0100000000000000   0.0000000000000000   0.0000000000000000
  -0.0081266800   -0.0204300000   -0.0014529200
  -0.0570296300    0.0068610200   -0.0014192900
  -0.2439176500   -0.1285830700    0.0009569000
   0.6666288400   -0.0117682900   -0.0007969100
  -0.1119391100    0.0475920000   -0.0020787900
   0.0194236300    0.0280790900    0.0024648800
   0.0026883100    0.0068572600   -0.0047356600
  -0.0059613200    0.0028424200    0.0004808500
   0.0056407000    0.0053116300    0.0038284600
  -0.2607236000    0.0896153500    0.0001899300
   0.0006480400   -0.0187705600   -0.0044958100
   0.0040109300   -0.0004123600   -0.0003456100
  -0.0045395100   -0.0031707400   -0.0006694600
  -0.0068029400   -0.0040237500    0.0080734400

4    
  0.0000000000000000   0.0100000000000000   0.0000000000000000
   0.0161534100    0.0427522800   -0.0023862000
   0.0286060700   -0.0493461500   -0.0009706900
   0.0689321000    0.1809415000    0.0005531900
   0.0249743600   -0.6435939900    0.0004337900
   0.0012462600    0.3362557300   -0.0019136900
  -0.0718275300    0.0100932100    0.0022071000
   0.0033517400    0.0083515000   -0.0048576000
  -0.0055284900    0.0001315100    0.0004623100
   0.0241113700    0.0136259600    0.0037971000
  -0.0904968500    0.0931749600    0.0003415600
  -0.0076177100    0.0201619600   -0.0048739500
   0.0044074500   -0.0023463200    0.0006824800
  -0.0031811500   -0.0025674000   -0.0008784900
   0.0068689800   -0.0076347600    0.0074030800

4    
  0.0000000000000000  -0.0100000000000000   0.0000000000000000
  -0.0148405100   -0.0410011400   -0.0009816000
  -0.0324067700    0.0473394800   -0.0015524500
  -0.0733594700   -0.1847358700    0.0009080200
  -0.0158618000    0.6213080700   -0.0028235100
  -0.0028971900   -0.3129463300   -0.0015609100
   0.0708083800   -0.0219360300    0.0019213200
   0.0014928200    0.0065021300   -0.0046968000
   0.0016184600    0.0002514000    0.0005065800
  -0.0246119600   -0.0129798900    0.0038304400
   0.0967457600   -0.0912936900    0.0007401300
  -0.0007295400   -0.0062929900   -0.0045898900
   0.0044088500   -0.0020077800   -0.0018201800
  -0.0047267600   -0.0038393700   -0.0007057400
  -0.0056402700    0.0016320100    0.0108245800

4    
  0.0000000000000000   0.0000000000000000   0.0100000000000000
   0.0005028100    0.0006481300    0.0026797300
  -0.0022046800   -0.0007620000   -0.0087212800
   0.0015785000   -0.0001926300    0.0583066400
   0.0007267600    0.0006305000   -0.1253087400
   0.0001567800   -0.0011561300    0.0509650100
   0.0006367900   -0.0068360600   -0.0003864300
   0.0024024900    0.0074117100   -0.0038508400
  -0.0019538200    0.0001938300   -0.0058723300
  -0.0001473200    0.0004779200    0.0024479500
   0.0016874200    0.0005898200    0.0340331000
  -0.0042017400    0.0067847900   -0.0065539000
   0.0041967100   -0.0017734200   -0.0022202300
  -0.0031903600   -0.0024912800   -0.0003046500
  -0.0001903200   -0.0035252000    0.0047859700

4    
  0.0000000000000000   0.0000000000000000  -0.0100000000000000
   0.0007009600    0.0009305100   -0.0060448900
  -0.0017757200   -0.0012653600    0.0061989400
   0.0013153400    0.0003759200   -0.0568637900
   0.0016793000   -0.0026239600    0.1228111900
   0.0005840700    0.0008221600   -0.0543115800
  -0.0009070100   -0.0053032700    0.0045229500
   0.0024255700    0.0074420500   -0.0057034000
  -0.0019886300    0.0002132900    0.0068437300
  -0.0000435200    0.0005543900    0.0051754600
   0.0009385500    0.0011062800   -0.0329676300
  -0.0041972000    0.0066650100   -0.0029036800
   0.0046399100   -0.0025749100    0.0010782400
  -0.0047356400   -0.0039223400   -0.0012796600
   0.0013640100   -0.0024197500    0.0134441100

5    
  0.0100000000000000   0.0000000000000000   0.0000000000000000
   0.0434148500    0.0241350200   -0.0017647500
   0.0157393100   -0.0216339700   -0.0011361000
  -0.0309663100    0.0186107800    0.0007178200
   0.1134264700    0.0020972500   -0.0014590700
  -0.6300843200   -0.0343748100   -0.0033012700
   0.2565189300   -0.0870957000    0.0044767500
   0.0044541500    0.0104848500   -0.0048320200
  -0.0021510700   -0.0005736800    0.0004268400
   0.0033382100    0.0039156300    0.0038276600
   0.0027999300   -0.0271111300    0.0006918100
   0.2209089400    0.1311150300   -0.0034364800
   0.0024461600    0.0000766100    0.0004011500
  -0.0056612000   -0.0013642500   -0.0000481300
   0.0058159500   -0.0182816300    0.0054358000

5    
 -0.0100000000000000   0.0000000000000000   0.0000000000000000
  -0.0432146500   -0.0230512400   -0.0015991700
  -0.0199921900    0.0199814300   -0.0013907500
   0.0331102300   -0.0194402800    0.0007256400
  -0.1120396800   -0.0021329500   -0.0010312800
   0.6377909900    0.0166992300   -0.0000431800
  -0.2711904200    0.0834634900   -0.0004293400
   0.0003071300    0.0043630100   -0.0047199400
  -0.0017496400    0.0009941000    0.0005441600
  -0.0034882400   -0.0028454100    0.0037980900
   0.0018129900    0.0277338200    0.0003879500
  -0.2206065100   -0.1087049200   -0.0059709600
   0.0063223700   -0.0043953800   -0.0015588000
  -0.0022221500   -0.0051249200   -0.0015342100
  -0.0048402400    0.0124600100    0.0128217700

5    
  0.0000000000000000   0.0100000000000000   0.0000000000000000
  -0.0033321100   -0.0442507600   -0.0013123100
  -0.0283403400    0.0315270200   -0.0013771700
   0.0556194800    0.0373477600    0.0004623400
  -0.0455879300    0.3128832400   -0.0021758900
  -0.0278539400   -0.6532286600   -0.0009953300
  -0.0301347200    0.1273915000    0.0016443400
   0.0065788500    0.0089656400   -0.0047756600
  -0.0028652200    0.0007413000    0.0005155600
   0.0022157900    0.0003198200    0.0037627000
   0.0034286900    0.0082231200    0.0003949000
   0.1184535700    0.1446740000   -0.0041262400
   0.0043821400    0.0033874000   -0.0007215800
  -0.0071666100   -0.0056335300   -0.0012961500
  -0.0453976500    0.0276521500    0.0100005000

5    
  0.0000000000000000  -0.0100000000000000   0.0000000000000000
   0.0047083300    0.0461003300   -0.0020544600
   0.0245975100   -0.0336681700   -0.0011459600
  -0.0546653200   -0.0389336200    0.0009922700
   0.0502845000   -0.3363160800   -0.0001950300
   0.0231739800    0.6749476600   -0.0025181900
   0.0274742600   -0.1396458000    0.0024676100
  -0.0017602100    0.0059109000   -0.0047775900
  -0.0010161000   -0.0003479100    0.0004537500
  -0.0023868000    0.0007370200    0.0038612000
   0.0011972200   -0.0076373300    0.0006837300
  -0.1212038900   -0.1297639700   -0.0053140400
   0.0043939300   -0.0076782100   -0.0004605300
  -0.0007832800   -0.0007468000   -0.0003044000
   0.0459858700   -0.0329580300    0.0083116500

5    
  0.0000000000000000   0.0000000000000000   0.0100000000000000
   0.0005081200    0.0011536700   -0.0086524000
  -0.0016175900   -0.0015175300    0.0030985800
   0.0000547300   -0.0007983000   -0.0078777800
   0.0010483300   -0.0003539300    0.0513828800
  -0.0008871500    0.0016396200   -0.1130640500
   0.0014524400   -0.0076029500    0.0641529100
   0.0023851700    0.0074400600   -0.0098705900
  -0.0019491300    0.0002005600    0.0015326300
  -0.0000974900    0.0005371900   -0.0020148600
   0.0022852600    0.0004251100   -0.0024621200
  -0.0041415500    0.0063117200    0.0246550800
   0.0049636700   -0.0026967500   -0.0026113700
  -0.0035562800   -0.0023211100   -0.0003091200
  -0.0004485500   -0.0024173700    0.0020401900

5    
  0.0000000000000000   0.0000000000000000  -0.0100000000000000
   0.0005110400    0.0003922600    0.0052945600
  -0.0023704100   -0.0002440400   -0.0056283000
   0.0019175000   -0.0000863700    0.0093277600
   0.0002555000   -0.0000033000   -0.0538937100
   0.0023666000    0.0001161100    0.1096861200
  -0.0004890000   -0.0048961800   -0.0599433000
   0.0024141400    0.0074038900    0.0003180000
  -0.0019634000    0.0002045200   -0.0005630300
  -0.0000783500    0.0005330700    0.0096442700
   0.0022853300    0.0004116900    0.0035388400
  -0.0059631000    0.0058185200   -0.0341269400
   0.0038271500   -0.0016340600    0.0014934000
  -0.0043260800   -0.0041063800   -0.0012377500
   0.0016130800   -0.0039097200    0.0160900700

6    
  0.0100000000000000   0.0000000000000000   0.0000000000000000
   0.2295447900    0.0476307700   -0.0022891900
  -0.0420706200    0.0578739900   -0.0018529000
   0.0597865000    0.0068983900    0.0006741400
  -0.0185454700   -0.0724159300   -0.0004712100
   0.2716376800   -0.0319983300   -0.0006501100
  -0.6417877800    0.0036442700    0.0008673700
   0.0201815800    0.0229913600   -0.0046223400
  -0.0035282300   -0.0018750500    0.0005598900
   0.0013950800    0.0007726800    0.0038121500
   0.0002127600    0.0010304600    0.0004904900
   0.0133941300   -0.0034558300   -0.0049209000
   0.0066118000   -0.0354393700   -0.0060881700
  -0.0090687600    0.0264057400    0.0022490900
   0.1122365400   -0.0220631500    0.0122416900

6    
 -0.0100000000000000   0.0000000000000000   0.0000000000000000
  -0.2377552100   -0.0543506100   -0.0009945000
   0.0380116000   -0.0599628800   -0.0006736700
  -0.0580166900   -0.0074963400    0.0007685200
   0.0204050400    0.0702190700   -0.0020145500
  -0.2560746100    0.0257751600   -0.0025944500
   0.6356669500    0.0011452100    0.0030022600
  -0.0159871000   -0.0083296800   -0.0049230300
  -0.0003798500    0.0022520100    0.0004118200
  -0.0015480500    0.0003337900    0.0038136000
   0.0043319400   -0.0001811300    0.0005860300
  -0.0212140300    0.0168099100   -0.0045341400
   0.0021988500    0.0313670000    0.0047304800
   0.0010963500   -0.0327292100   -0.0040243000
  -0.1107351700    0.0151477200    0.0064459200

6    
  0.0000000000000000   0.0100000000000000   0.0000000000000000
   0.1049027700    0.1630758900   -0.0031909000
   0.0196513000    0.0352904400   -0.0021698700
   0.0080256900   -0.0067678600    0.0011685400
  -0.0331078900    0.0149897500   -0.0020095300
  -0.0835905200    0.1342593400   -0.0030344600
   0.0040152700   -0.6647004500    0.0114175700
  -0.0112065200   -0.0002007000   -0.0045649000
  -0.0035627400    0.0047167500    0.0003682200
   0.0001380300    0.0000531300    0.0038168100
   0.0024178800    0.0054461300    0.0004089200
   0.0149576900   -0.0001814900   -0.0045492600
   0.0008077100    0.0104094200    0.0093477000
  -0.0042639400    0.0168202800    0.0100341900
  -0.0191847400    0.2867893700   -0.0170430400

6    
  0.0000000000000000  -0.0100000000000000   0.0000000000000000
  -0.1097425400   -0.1641356400   -0.0001309800
  -0.0236821000   -0.0378691800   -0.0003434800
  -0.0063665300    0.0055858800    0.0002915100
   0.0350116100   -0.0170312000   -0.0004812100
   0.0867926600   -0.1327766900   -0.0003243000
   0.0015039400    0.6348155300   -0.0075774000
   0.0161174700    0.0151718900   -0.0050031000
  -0.0003859600   -0.0043466800    0.0005942600
  -0.0003038500    0.0010689800    0.0038086800
   0.0021608700   -0.0045828500    0.0006620800
  -0.0234212800    0.0136261000   -0.0049173500
   0.0075784900   -0.0141978300   -0.0104609600
  -0.0033231100   -0.0223549000   -0.0116248800
   0.0180603000   -0.2729734000    0.0355071200

6    
  0.0000000000000000   0.0000000000000000   0.0100000000000000
  -0.0010638700    0.0002063700    0.0603526200
  -0.0016970500   -0.0007468500   -0.0037091500
   0.0009211600   -0.0010429300    0.0063857800
   0.0005327700   -0.0007187900   -0.0036931400
   0.0020905200    0.0004358800    0.0603471600
  -0.0012204700    0.0033301600   -0.1462457500
   0.0024136900    0.0074029800   -0.0083315300
  -0.0019910200    0.0002097200   -0.0065444200
  -0.0000829800    0.0005832000    0.0043520600
   0.0023014900    0.0004561500   -0.0064907100
  -0.0042053900    0.0066650000   -0.0082834400
   0.0056280000   -0.0134166300    0.0039963100
  -0.0027238200   -0.0144122600    0.0037757200
  -0.0009030200    0.0110480000    0.0440884800

6    
  0.0000000000000000   0.0000000000000000  -0.0100000000000000
   0.0035203800    0.0020510700   -0.0637549500
  -0.0024115000   -0.0011975500    0.0012002300
   0.0007828400    0.0002377500   -0.0049415600
   0.0013249400   -0.0010060600    0.0012159100
  -0.0028104600    0.0012584400   -0.0637489900
   0.0009121900   -0.0156758600    0.1503965000
   0.0023545200    0.0074581300   -0.0012229400
  -0.0019218400    0.0001502400    0.0075150200
  -0.0000747800    0.0005087500    0.0032739100
   0.0022465500    0.0003832900    0.0075679500
  -0.0041584000    0.0067311600   -0.0011752400
   0.0031759900    0.0091776100   -0.0050888800
  -0.0051919900    0.0081372200   -0.0053161500
   0.0022515700   -0.0182142000   -0.0259208200

7    
  0.0100000000000000   0.0000000000000000   0.0000000000000000
   0.2749569400   -0.0941569300   -0.0026682000
  -0.0014836100   -0.0001968100   -0.0012732700
  -0.0014027400   -0.0008525100    0.0006736600
   0.0005699600    0.0000819100   -0.0012589300
   0.0024360300    0.0048028500   -0.0016979700
   0.0180278700   -0.0198106200    0.0020975900
  -0.2891456400    0.1106118200   -0.0035735400
  -0.0027866700   -0.0000763600    0.0005257800
   0.0000751500    0.0006623600    0.0038044400
   0.0023213800    0.0003666700    0.0005412800
  -0.0031683900    0.0061210300   -0.0047208600
   0.0048809900   -0.0006477500   -0.0009262900
  -0.0042782100   -0.0031309500   -0.0008915700
  -0.0010030500   -0.0037747100    0.0093678800

7    
 -0.0100000000000000   0.0000000000000000   0.0000000000000000
  -0.2600000500    0.0880965000   -0.0007650100
  -0.0027419400   -0.0015203400   -0.0012511500
   0.0031183700    0.0000486700    0.0007745500
   0.0011012500   -0.0017772800   -0.0012341700
  -0.0017115900   -0.0035374200   -0.0016698400
  -0.0181384900    0.0075155300    0.0020386200
   0.2802638800   -0.0882924500   -0.0059192100
  -0.0011027800    0.0004591400    0.0004447600
  -0.0002503100    0.0004405200    0.0038218800
   0.0022114000    0.0005128000    0.0005357200
  -0.0052520200    0.0072591600   -0.0047374700
   0.0039572700   -0.0037154200   -0.0002076800
  -0.0036574500   -0.0032869100   -0.0006931200
   0.0022024700   -0.0022025200    0.0088621300

7    
  0.0000000000000000   0.0100000000000000   0.0000000000000000
  -0.0896853400    0.0918633300   -0.0016400500
  -0.0301022600    0.0066590300   -0.0012025700
   0.0016806300    0.0047153900    0.0007051200
   0.0013830200    0.0000539700   -0.0012614700
   0.0033947500    0.0021674200   -0.0016651800
   0.0154252600   -0.0137844300    0.0020405400
   0.1008467400   -0.0883411500   -0.0047906100
  -0.0016557100   -0.0007125300    0.0004777100
  -0.0014785200    0.0010634900    0.0038052600
   0.0021729500    0.0003712400    0.0005395200
  -0.0033210900    0.0062598000   -0.0047058100
   0.0038814600   -0.0019382500   -0.0009747400
  -0.0041529700   -0.0033374500   -0.0008138800
   0.0016110700   -0.0050398800    0.0094861500

7    
  0.0000000000000000  -0.0100000000000000   0.0000000000000000
   0.0924110300   -0.0893308100   -0.0017366300
   0.0265243400   -0.0087917200   -0.0013204000
   0.0000896300   -0.0056129100    0.0007452100
   0.0002660700   -0.0017943800   -0.0012310100
  -0.0027288500   -0.0008869100   -0.0017013600
  -0.0158944700    0.0015908300    0.0020965000
  -0.0978635200    0.1024840400   -0.0047605700
  -0.0022473200    0.0011055600    0.0004922700
   0.0013242600    0.0000253300    0.0038208300
   0.0023588200    0.0005077600    0.0005374800
  -0.0051107900    0.0071152300   -0.0047520000
   0.0049571700   -0.0024392200   -0.0001683600
  -0.0037773800   -0.0030681900   -0.0007665100
  -0.0003089900   -0.0009046000    0.0087445500

7    
  0.0000000000000000   0.0000000000000000   0.0100000000000000
  -0.0020302000    0.0016439200    0.0277218500
  -0.0016743900   -0.0011018100   -0.0030878400
   0.0008785000   -0.0005427000   -0.0058875700
   0.0007975800   -0.0009281400   -0.0003199600