mesh: [     1,     1,     1 ]
nqpoint: 1      
reciprocal_lattice:
- [   0.05117642,   0.00000000,   0.00000000 ] # a*
- [   0.00000000,   0.04795685,   0.00000000 ] # b*
- [   0.00000000,   0.00000000,   0.06666667 ] # c*
natom:   14     
lattice:
- [    19.540250000000000,     0.000000000000000,     0.000000000000000 ] # a
- [     0.000000000000000,    20.852080000000001,     0.000000000000000 ] # b
- [     0.000000000000000,     0.000000000000000,    15.000000000000000 ] # c
points:
- symbol: C  # 1
  coordinates: [  0.434629411284320,  0.505213813725355,  0.499547454376094 ]
  mass: 12.010700
- symbol: C  # 2
  coordinates: [  0.442678027797677,  0.438803278532671,  0.499979978875389 ]
  mass: 12.010700
- symbol: C  # 3
  coordinates: [  0.507848635195093,  0.411174562068700,  0.500104367106208 ]
  mass: 12.010700
- symbol: C  # 4
  coordinates: [  0.565115844784146,  0.451339514840893,  0.499982805481390 ]
  mass: 12.010700
- symbol: C  # 5
  coordinates: [  0.557669760301563,  0.517811839076290,  0.499550130692197 ]
  mass: 12.010700
- symbol: C  # 6
  coordinates: [  0.492147128826791,  0.545845523995291,  0.499101324936522 ]
  mass: 12.010700
- symbol: H  # 7
  coordinates: [  0.383355391601211,  0.526073967796835,  0.499793180911155 ]
  mass: 1.007940
- symbol: H  # 8
  coordinates: [  0.397311284843929,  0.408302011625104,  0.500087749257459 ]
  mass: 1.007940
- symbol: H  # 9
  coordinates: [  0.513905917636084,  0.359228271439140,  0.500199790140563 ]
  mass: 1.007940
- symbol: H  # 10
  coordinates: [  0.616440159371348,  0.430738290292174,  0.500090270770713 ]
  mass: 1.007940
- symbol: H  # 11
  coordinates: [  0.602927930476068,  0.548555097176415,  0.499793542227504 ]
  mass: 1.007940
- symbol: H  # 12
  coordinates: [  0.438918169029848,  0.629637307694580,  0.480300581304547 ]
  mass: 1.007940
- symbol: H  # 13
  coordinates: [  0.524818350085244,  0.638434703471219,  0.480346959551959 ]
  mass: 1.007940
- symbol: N  # 14
  coordinates: [  0.484397727715768,  0.612286961387720,  0.502246744390538 ]
  mass: 14.006700
phonon:
- q-position: [    0.0000000,    0.0000000,    0.0000000 ]
  weight: 1    
  band:
  - # 1
    frequency:    -0.0886108363
    eigenvector:
    - # atom 1
      - [ -0.01989756210743,  0.00000000000000 ]
      - [ -0.25066231006016,  0.00000000000000 ]
      - [  0.02492498061068,  0.00000000000000 ]
    - # atom 2
      - [  0.26327024457880,  0.00000000000000 ]
      - [ -0.21867444403332,  0.00000000000000 ]
      - [ -0.00022461848585,  0.00000000000000 ]
    - # atom 3
      - [  0.38103396756455,  0.00000000000000 ]
      - [  0.04151764116904,  0.00000000000000 ]
      - [ -0.03374213991525,  0.00000000000000 ]
    - # atom 4
      - [  0.20986166679219,  0.00000000000000 ]
      - [  0.27020912056909,  0.00000000000000 ]
      - [ -0.04167115402457,  0.00000000000000 ]
    - # atom 5
      - [ -0.07355443609445,  0.00000000000000 ]
      - [  0.24053421660859,  0.00000000000000 ]
      - [ -0.01669035950206,  0.00000000000000 ]
    - # atom 6
      - [ -0.19307260275781,  0.00000000000000 ]
      - [ -0.02093823151595,  0.00000000000000 ]
      - [  0.01705338509962,  0.00000000000000 ]
    - # atom 7
      - [ -0.03151205065618,  0.00000000000000 ]
      - [ -0.13195789659895,  0.00000000000000 ]
      - [  0.01477488868070,  0.00000000000000 ]
    - # atom 8
      - [  0.11395593734177,  0.00000000000000 ]
      - [ -0.11588252902969,  0.00000000000000 ]
      - [  0.00189123787097,  0.00000000000000 ]
    - # atom 9
      - [  0.17448875293098,  0.00000000000000 ]
      - [  0.01902359980385,  0.00000000000000 ]
      - [ -0.01544713129657,  0.00000000000000 ]
    - # atom 10
      - [  0.08624277328730,  0.00000000000000 ]
      - [  0.13767267347896,  0.00000000000000 ]
      - [ -0.01960064534346,  0.00000000000000 ]
    - # atom 11
      - [ -0.05928061460193,  0.00000000000000 ]
      - [  0.12205610922512,  0.00000000000000 ]
      - [ -0.00671346378257,  0.00000000000000 ]
    - # atom 12
      - [ -0.16071631058942,  0.00000000000000 ]
      - [ -0.06615420038626,  0.00000000000000 ]
      - [  0.01886341308419,  0.00000000000000 ]
    - # atom 13
      - [ -0.17154683543829,  0.00000000000000 ]
      - [  0.03295024167476,  0.00000000000000 ]
      - [  0.01037786320574,  0.00000000000000 ]
    - # atom 14
      - [ -0.51266709019570,  0.00000000000000 ]
      - [ -0.05678488088889,  0.00000000000000 ]
      - [  0.04551234479925,  0.00000000000000 ]
  - # 2
    frequency:     0.0000008637
    eigenvector:
    - # atom 1
      - [  0.00000000000849,  0.00000000000000 ]
      - [  0.18908923987503,  0.00000000000000 ]
      - [  0.30531486925759,  0.00000000000000 ]
    - # atom 2
      - [  0.00000000000071,  0.00000000000000 ]
      - [  0.18908923987414,  0.00000000000000 ]
      - [  0.30531486925586,  0.00000000000000 ]
    - # atom 3
      - [ -0.00000000000251,  0.00000000000000 ]
      - [  0.18908923986704,  0.00000000000000 ]
      - [  0.30531486926603,  0.00000000000000 ]
    - # atom 4
      - [  0.00000000000217,  0.00000000000000 ]
      - [  0.18908923986081,  0.00000000000000 ]
      - [  0.30531486927801,  0.00000000000000 ]
    - # atom 5
      - [  0.00000000000995,  0.00000000000000 ]
      - [  0.18908923986164,  0.00000000000000 ]
      - [  0.30531486927983,  0.00000000000000 ]
    - # atom 6
      - [  0.00000000001326,  0.00000000000000 ]
      - [  0.18908923986878,  0.00000000000000 ]
      - [  0.30531486926961,  0.00000000000000 ]
    - # atom 7
      - [  0.00000000000315,  0.00000000000000 ]
      - [  0.05477722113173,  0.00000000000000 ]
      - [  0.08844659864438,  0.00000000000000 ]
    - # atom 8
      - [ -0.00000000000083,  0.00000000000000 ]
      - [  0.05477722113129,  0.00000000000000 ]
      - [  0.08844659864347,  0.00000000000000 ]
    - # atom 9
      - [ -0.00000000000248,  0.00000000000000 ]
      - [  0.05477722112761,  0.00000000000000 ]
      - [  0.08844659864874,  0.00000000000000 ]
    - # atom 10
      - [ -0.00000000000007,  0.00000000000000 ]
      - [  0.05477722112438,  0.00000000000000 ]
      - [  0.08844659865495,  0.00000000000000 ]
    - # atom 11
      - [  0.00000000000391,  0.00000000000000 ]
      - [  0.05477722112481,  0.00000000000000 ]
      - [  0.08844659865586,  0.00000000000000 ]
    - # atom 12
      - [  0.00000000000738,  0.00000000000000 ]
      - [  0.05477722113016,  0.00000000000000 ]
      - [  0.08844659864862,  0.00000000000000 ]
    - # atom 13
      - [  0.00000000000768,  0.00000000000000 ]
      - [  0.05477722112746,  0.00000000000000 ]
      - [  0.08844659865310,  0.00000000000000 ]
    - # atom 14
      - [  0.00000000002217,  0.00000000000000 ]
      - [  0.20419757007914,  0.00000000000000 ]
      - [  0.32970968870183,  0.00000000000000 ]
  - # 3
    frequency:     0.0000013133
    eigenvector:
    - # atom 1
      - [  0.35912659332150,  0.00000000000000 ]
      - [  0.00000000000534,  0.00000000000000 ]
      - [ -0.00000000000868,  0.00000000000000 ]
    - # atom 2
      - [  0.35912659331375,  0.00000000000000 ]
      - [  0.00000000000447,  0.00000000000000 ]
      - [ -0.00000000000685,  0.00000000000000 ]
    - # atom 3
      - [  0.35912659331052,  0.00000000000000 ]
      - [ -0.00000000000266,  0.00000000000000 ]
      - [ -0.00000000000590,  0.00000000000000 ]
    - # atom 4
      - [  0.35912659331521,  0.00000000000000 ]
      - [ -0.00000000000892,  0.00000000000000 ]
      - [ -0.00000000000684,  0.00000000000000 ]
    - # atom 5
      - [  0.35912659332297,  0.00000000000000 ]
      - [ -0.00000000000812,  0.00000000000000 ]
      - [ -0.00000000000868,  0.00000000000000 ]
    - # atom 6
      - [  0.35912659332624,  0.00000000000000 ]
      - [ -0.00000000000096,  0.00000000000000 ]
      - [ -0.00000000000963,  0.00000000000000 ]
    - # atom 7
      - [  0.10403530538920,  0.00000000000000 ]
      - [  0.00000000000317,  0.00000000000000 ]
      - [ -0.00000000000272,  0.00000000000000 ]
    - # atom 8
      - [  0.10403530538522,  0.00000000000000 ]
      - [  0.00000000000273,  0.00000000000000 ]
      - [ -0.00000000000178,  0.00000000000000 ]
    - # atom 9
      - [  0.10403530538356,  0.00000000000000 ]
      - [ -0.00000000000096,  0.00000000000000 ]
      - [ -0.00000000000129,  0.00000000000000 ]
    - # atom 10
      - [  0.10403530538598,  0.00000000000000 ]
      - [ -0.00000000000421,  0.00000000000000 ]
      - [ -0.00000000000178,  0.00000000000000 ]
    - # atom 11
      - [  0.10403530538997,  0.00000000000000 ]
      - [ -0.00000000000378,  0.00000000000000 ]
      - [ -0.00000000000272,  0.00000000000000 ]
    - # atom 12
      - [  0.10403530539271,  0.00000000000000 ]
      - [  0.00000000000130,  0.00000000000000 ]
      - [ -0.00000000000350,  0.00000000000000 ]
    - # atom 13
      - [  0.10403530539301,  0.00000000000000 ]
      - [ -0.00000000000142,  0.00000000000000 ]
      - [ -0.00000000000349,  0.00000000000000 ]
    - # atom 14
      - [  0.38782099795949,  0.00000000000000 ]
      - [ -0.00000000000006,  0.00000000000000 ]
      - [ -0.00000000001237,  0.00000000000000 ]
  - # 4
    frequency:     0.0000017504
    eigenvector:
    - # atom 1
      - [ -0.00000000000074,  0.00000000000000 ]
      - [  0.30531486929700,  0.00000000000000 ]
      - [ -0.18908923992015,  0.00000000000000 ]
    - # atom 2
      - [ -0.00000000003334,  0.00000000000000 ]
      - [  0.30531486929342,  0.00000000000000 ]
      - [ -0.18908923989520,  0.00000000000000 ]
    - # atom 3
      - [ -0.00000000004686,  0.00000000000000 ]
      - [  0.30531486926374,  0.00000000000000 ]
      - [ -0.18908923983487,  0.00000000000000 ]
    - # atom 4
      - [ -0.00000000002724,  0.00000000000000 ]
      - [  0.30531486923761,  0.00000000000000 ]
      - [ -0.18908923979986,  0.00000000000000 ]
    - # atom 5
      - [  0.00000000000538,  0.00000000000000 ]
      - [  0.30531486924093,  0.00000000000000 ]
      - [ -0.18908923982442,  0.00000000000000 ]
    - # atom 6
      - [  0.00000000001928,  0.00000000000000 ]
      - [  0.30531486927070,  0.00000000000000 ]
      - [ -0.18908923988503,  0.00000000000000 ]
    - # atom 7
      - [  0.00000000000268,  0.00000000000000 ]
      - [  0.08844659866490,  0.00000000000000 ]
      - [ -0.05477722115686,  0.00000000000000 ]
    - # atom 8
      - [ -0.00000000001398,  0.00000000000000 ]
      - [  0.08844659866309,  0.00000000000000 ]
      - [ -0.05477722114412,  0.00000000000000 ]
    - # atom 9
      - [ -0.00000000002092,  0.00000000000000 ]
      - [  0.08844659864769,  0.00000000000000 ]
      - [ -0.05477722111288,  0.00000000000000 ]
    - # atom 10
      - [ -0.00000000001082,  0.00000000000000 ]
      - [  0.08844659863414,  0.00000000000000 ]
      - [ -0.05477722109468,  0.00000000000000 ]
    - # atom 11
      - [  0.00000000000586,  0.00000000000000 ]
      - [  0.08844659863590,  0.00000000000000 ]
      - [ -0.05477722110740,  0.00000000000000 ]
    - # atom 12
      - [  0.00000000002072,  0.00000000000000 ]
      - [  0.08844659865642,  0.00000000000000 ]
      - [ -0.05477722115216,  0.00000000000000 ]
    - # atom 13
      - [  0.00000000002194,  0.00000000000000 ]
      - [  0.08844659864511,  0.00000000000000 ]
      - [ -0.05477722113286,  0.00000000000000 ]
    - # atom 14
      - [  0.00000000005351,  0.00000000000000 ]
      - [  0.32970968870559,  0.00000000000000 ]
      - [ -0.20419757012255,  0.00000000000000 ]
  - # 5
    frequency:     0.1826617055
    eigenvector:
    - # atom 1
      - [  0.00118234497517,  0.00000000000000 ]
      - [  0.02287422690530,  0.00000000000000 ]
      - [  0.30520171715647,  0.00000000000000 ]
    - # atom 2
      - [ -0.02260459447458,  0.00000000000000 ]
      - [  0.01884266839464,  0.00000000000000 ]
      - [  0.02596765819188,  0.00000000000000 ]
    - # atom 3
      - [ -0.03268246098947,  0.00000000000000 ]
      - [ -0.00480236055617,  0.00000000000000 ]
      - [ -0.37431275910103,  0.00000000000000 ]
    - # atom 4
      - [ -0.01776857355720,  0.00000000000000 ]
      - [ -0.02497230845110,  0.00000000000000 ]
      - [ -0.49018551400372,  0.00000000000000 ]
    - # atom 5
      - [  0.00604956047616,  0.00000000000000 ]
      - [ -0.02118996449477,  0.00000000000000 ]
      - [ -0.21304313767842,  0.00000000000000 ]
    - # atom 6
      - [  0.01520174708743,  0.00000000000000 ]
      - [  0.00337080811827,  0.00000000000000 ]
      - [  0.18926561272268,  0.00000000000000 ]
    - # atom 7
      - [  0.00290152677810,  0.00000000000000 ]
      - [  0.01178176919946,  0.00000000000000 ]
      - [  0.17873809718420,  0.00000000000000 ]
    - # atom 8
      - [ -0.00980476433583,  0.00000000000000 ]
      - [  0.01006940800315,  0.00000000000000 ]
      - [  0.03571424170148,  0.00000000000000 ]
    - # atom 9
      - [ -0.01507160257941,  0.00000000000000 ]
      - [ -0.00209281440621,  0.00000000000000 ]
      - [ -0.17141855466711,  0.00000000000000 ]
    - # atom 10
      - [ -0.00731675853037,  0.00000000000000 ]
      - [ -0.01263887815615,  0.00000000000000 ]
      - [ -0.23193854824624,  0.00000000000000 ]
    - # atom 11
      - [  0.00535100574676,  0.00000000000000 ]
      - [ -0.01094998375875,  0.00000000000000 ]
      - [ -0.08899185838006,  0.00000000000000 ]
    - # atom 12
      - [ -0.00538763692161,  0.00000000000000 ]
      - [  0.02075377410044,  0.00000000000000 ]
      - [  0.21367099834914,  0.00000000000000 ]
    - # atom 13
      - [ -0.00437778454327,  0.00000000000000 ]
      - [  0.01182444211817,  0.00000000000000 ]
      - [  0.10920199812800,  0.00000000000000 ]
    - # atom 14
      - [  0.05591835815537,  0.00000000000000 ]
      - [ -0.00226964386403,  0.00000000000000 ]
      - [  0.50382161326432,  0.00000000000000 ]
  - # 6
    frequency:     0.1955228433
    eigenvector:
    - # atom 1
      - [  0.00071740538203,  0.00000000000000 ]
      - [  0.00060842221492,  0.00000000000000 ]
      - [ -0.32237096720472,  0.00000000000000 ]
    - # atom 2
      - [ -0.00143374584695,  0.00000000000000 ]
      - [ -0.00055037367224,  0.00000000000000 ]
      - [ -0.52485436812611,  0.00000000000000 ]
    - # atom 3
      - [ -0.00206605948884,  0.00000000000000 ]
      - [ -0.00111611123768,  0.00000000000000 ]
      - [ -0.27429893669531,  0.00000000000000 ]
    - # atom 4
      - [ -0.00136895325209,  0.00000000000000 ]
      - [ -0.00100552408921,  0.00000000000000 ]
      - [  0.18464986880410,  0.00000000000000 ]
    - # atom 5
      - [  0.00077377901455,  0.00000000000000 ]
      - [  0.00021272536620,  0.00000000000000 ]
      - [  0.38993703241363,  0.00000000000000 ]
    - # atom 6
      - [  0.00268400054659,  0.00000000000000 ]
      - [  0.00153384322473,  0.00000000000000 ]
      - [  0.13869767951229,  0.00000000000000 ]
    - # atom 7
      - [ -0.00001941633364,  0.00000000000000 ]
      - [  0.00012212414373,  0.00000000000000 ]
      - [ -0.15109576652157,  0.00000000000000 ]
    - # atom 8
      - [ -0.00058399621594,  0.00000000000000 ]
      - [ -0.00018786005982,  0.00000000000000 ]
      - [ -0.25586543105338,  0.00000000000000 ]
    - # atom 9
      - [ -0.00083047409724,  0.00000000000000 ]
      - [ -0.00041332537317,  0.00000000000000 ]
      - [ -0.12562163522477,  0.00000000000000 ]
    - # atom 10
      - [ -0.00055838611393,  0.00000000000000 ]
      - [ -0.00044622706404,  0.00000000000000 ]
      - [  0.11207314947658,  0.00000000000000 ]
    - # atom 11
      - [ -0.00002222934790,  0.00000000000000 ]
      - [ -0.00016922538293,  0.00000000000000 ]
      - [  0.21688002193472,  0.00000000000000 ]
    - # atom 12
      - [  0.02327359556200,  0.00000000000000 ]
      - [  0.01486195594640,  0.00000000000000 ]
      - [  0.04654185717558,  0.00000000000000 ]
    - # atom 13
      - [  0.02320341820142,  0.00000000000000 ]
      - [  0.01483419099863,  0.00000000000000 ]
      - [  0.19000483703568,  0.00000000000000 ]
    - # atom 14
      - [ -0.01128507805994,  0.00000000000000 ]
      - [ -0.00737899713618,  0.00000000000000 ]
      - [  0.36920434116298,  0.00000000000000 ]
  - # 7
    frequency:     6.3141604762
    eigenvector:
    - # atom 1
      - [  0.00033921869844,  0.00000000000000 ]
      - [  0.00154272527779,  0.00000000000000 ]
      - [  0.41212046823926,  0.00000000000000 ]
    - # atom 2
      - [  0.00041096507177,  0.00000000000000 ]
      - [ -0.00075192854504,  0.00000000000000 ]
      - [ -0.00065383988059,  0.00000000000000 ]
    - # atom 3
      - [  0.00033208181445,  0.00000000000000 ]
      - [ -0.00242336490991,  0.00000000000000 ]
      - [ -0.42487216749352,  0.00000000000000 ]
    - # atom 4
      - [ -0.00018478818061,  0.00000000000000 ]
      - [ -0.00072443395914,  0.00000000000000 ]
      - [ -0.00075375440095,  0.00000000000000 ]
    - # atom 5
      - [ -0.00076305707676,  0.00000000000000 ]
      - [  0.00150622216878,  0.00000000000000 ]
      - [  0.41210133365387,  0.00000000000000 ]
    - # atom 6
      - [ -0.00001298705211,  0.00000000000000 ]
      - [ -0.00050047843778,  0.00000000000000 ]
      - [  0.21385474850692,  0.00000000000000 ]
    - # atom 7
      - [  0.00066848996145,  0.00000000000000 ]
      - [  0.00123858123801,  0.00000000000000 ]
      - [  0.16928279873980,  0.00000000000000 ]
    - # atom 8
      - [  0.00002424699167,  0.00000000000000 ]
      - [ -0.00012281835351,  0.00000000000000 ]
      - [ -0.01922443521442,  0.00000000000000 ]
    - # atom 9
      - [  0.00013173262841,  0.00000000000000 ]
      - [ -0.00089586223658,  0.00000000000000 ]
      - [ -0.26619880238444,  0.00000000000000 ]
    - # atom 10
      - [  0.00003210322927,  0.00000000000000 ]
      - [ -0.00006629522796,  0.00000000000000 ]
      - [ -0.01929624698288,  0.00000000000000 ]
    - # atom 11
      - [ -0.00096068930499,  0.00000000000000 ]
      - [  0.00110562290829,  0.00000000000000 ]
      - [  0.16925911480674,  0.00000000000000 ]
    - # atom 12
      - [  0.00687518495782,  0.00000000000000 ]
      - [ -0.04611046971741,  0.00000000000000 ]
      - [ -0.20293540818707,  0.00000000000000 ]
    - # atom 13
      - [  0.00344541452388,  0.00000000000000 ]
      - [ -0.04647583760982,  0.00000000000000 ]
      - [ -0.20251881115825,  0.00000000000000 ]
    - # atom 14
      - [ -0.00285308132331,  0.00000000000000 ]
      - [  0.02575031634333,  0.00000000000000 ]
      - [ -0.46683823376897,  0.00000000000000 ]
  - # 8
    frequency:     9.5210908586
    eigenvector:
    - # atom 1
      - [ -0.05088417982888,  0.00000000000000 ]
      - [ -0.02562651198792,  0.00000000000000 ]
      - [  0.08054665409329,  0.00000000000000 ]
    - # atom 2
      - [  0.01504929978399,  0.00000000000000 ]
      - [ -0.02084210807259,  0.00000000000000 ]
      - [  0.00783215248147,  0.00000000000000 ]
    - # atom 3
      - [  0.03357878242626,  0.00000000000000 ]
      - [  0.00365946502554,  0.00000000000000 ]
      - [  0.00017351803889,  0.00000000000000 ]
    - # atom 4
      - [  0.01023081307938,  0.00000000000000 ]
      - [  0.02350580836781,  0.00000000000000 ]
      - [ -0.00796281466782,  0.00000000000000 ]
    - # atom 5
      - [ -0.05525797030575,  0.00000000000000 ]
      - [  0.01397181714480,  0.00000000000000 ]
      - [ -0.08092764924891,  0.00000000000000 ]
    - # atom 6
      - [ -0.05685890729999,  0.00000000000000 ]
      - [ -0.00625524244678,  0.00000000000000 ]
      - [  0.00001668454317,  0.00000000000000 ]
    - # atom 7
      - [ -0.01662242643638,  0.00000000000000 ]
      - [ -0.01506055400394,  0.00000000000000 ]
      - [  0.09154794828639,  0.00000000000000 ]
    - # atom 8
      - [  0.01143084034779,  0.00000000000000 ]
      - [ -0.01600251529543,  0.00000000000000 ]
      - [  0.02050891642295,  0.00000000000000 ]
    - # atom 9
      - [  0.01571699744592,  0.00000000000000 ]
      - [  0.00171170346802,  0.00000000000000 ]
      - [  0.00012166551474,  0.00000000000000 ]
    - # atom 10
      - [  0.00770884588014,  0.00000000000000 ]
      - [  0.01804341160151,  0.00000000000000 ]
      - [ -0.02056233048329,  0.00000000000000 ]
    - # atom 11
      - [ -0.01950576218506,  0.00000000000000 ]
      - [  0.01110914573870,  0.00000000000000 ]
      - [ -0.09170571053528,  0.00000000000000 ]
    - # atom 12
      - [  0.25774121805194,  0.00000000000000 ]
      - [  0.08231433086190,  0.00000000000000 ]
      - [ -0.63557360803656,  0.00000000000000 ]
    - # atom 13
      - [  0.26881251183075,  0.00000000000000 ]
      - [ -0.02515963607545,  0.00000000000000 ]
      - [  0.63474199466906,  0.00000000000000 ]
    - # atom 14
      - [ -0.04447329274422,  0.00000000000000 ]
      - [ -0.00454927682842,  0.00000000000000 ]
      - [  0.00054476778576,  0.00000000000000 ]
  - # 9
    frequency:    11.2333871039
    eigenvector:
    - # atom 1
      - [ -0.28707953732000,  0.00000000000000 ]
      - [ -0.13192525513623,  0.00000000000000 ]
      - [ -0.02343663576926,  0.00000000000000 ]
    - # atom 2
      - [  0.05980771939574,  0.00000000000000 ]
      - [ -0.15863061040784,  0.00000000000000 ]
      - [  0.01179315103116,  0.00000000000000 ]
    - # atom 3
      - [  0.13763186345685,  0.00000000000000 ]
      - [  0.01506683441842,  0.00000000000000 ]
      - [  0.00004192133269,  0.00000000000000 ]
    - # atom 4
      - [  0.02416689463944,  0.00000000000000 ]
      - [  0.16782295836915,  0.00000000000000 ]
      - [ -0.01185305414866,  0.00000000000000 ]
    - # atom 5
      - [ -0.30876317850270,  0.00000000000000 ]
      - [  0.06684716058291,  0.00000000000000 ]
      - [  0.02335950964300,  0.00000000000000 ]
    - # atom 6
      - [ -0.33013156653813,  0.00000000000000 ]
      - [ -0.03609283328139,  0.00000000000000 ]
      - [  0.00005439115054,  0.00000000000000 ]
    - # atom 7
      - [ -0.11172345507295,  0.00000000000000 ]
      - [ -0.10599125942188,  0.00000000000000 ]
      - [ -0.03112160138477,  0.00000000000000 ]
    - # atom 8
      - [  0.05571629646651,  0.00000000000000 ]
      - [ -0.10035413331067,  0.00000000000000 ]
      - [  0.00247753641947,  0.00000000000000 ]
    - # atom 9
      - [  0.08045229642590,  0.00000000000000 ]
      - [  0.00879914304809,  0.00000000000000 ]
      - [  0.00001547274914,  0.00000000000000 ]
    - # atom 10
      - [  0.03272485901858,  0.00000000000000 ]
      - [  0.10999463652675,  0.00000000000000 ]
      - [ -0.00254739799797,  0.00000000000000 ]
    - # atom 11
      - [ -0.13199184858244,  0.00000000000000 ]
      - [  0.07941309983140,  0.00000000000000 ]
      - [  0.03101907829218,  0.00000000000000 ]
    - # atom 12
      - [  0.18483742981020,  0.00000000000000 ]
      - [  0.22690397404951,  0.00000000000000 ]
      - [  0.14072003646373,  0.00000000000000 ]
    - # atom 13
      - [  0.22962231657758,  0.00000000000000 ]
      - [ -0.18186505880623,  0.00000000000000 ]
      - [ -0.14098543519356,  0.00000000000000 ]
    - # atom 14
      - [  0.56114258709487,  0.00000000000000 ]
      - [  0.06132238500551,  0.00000000000000 ]
      - [  0.00015099153846,  0.00000000000000 ]
  - # 10
    frequency:    12.0754434250
    eigenvector:
    - # atom 1
      - [  0.01004655139713,  0.00000000000000 ]
      - [  0.00120475074005,  0.00000000000000 ]
      - [ -0.41986186896469,  0.00000000000000 ]
    - # atom 2
      - [ -0.00215492468204,  0.00000000000000 ]
      - [  0.00460503032256,  0.00000000000000 ]
      - [  0.42528998470185,  0.00000000000000 ]
    - # atom 3
      - [ -0.00517943137609,  0.00000000000000 ]
      - [ -0.00057383930376,  0.00000000000000 ]
      - [  0.00000398860588,  0.00000000000000 ]
    - # atom 4
      - [ -0.00110827382791,  0.00000000000000 ]
      - [ -0.00496427583376,  0.00000000000000 ]
      - [ -0.42528652118221,  0.00000000000000 ]
    - # atom 5
      - [  0.01004128313086,  0.00000000000000 ]
      - [  0.00098786398810,  0.00000000000000 ]
      - [  0.41978386120613,  0.00000000000000 ]
    - # atom 6
      - [  0.01071346200155,  0.00000000000000 ]
      - [  0.00116820706452,  0.00000000000000 ]
      - [ -0.00003634354770,  0.00000000000000 ]
    - # atom 7
      - [  0.00315365148638,  0.00000000000000 ]
      - [  0.00204568208590,  0.00000000000000 ]
      - [ -0.24979815252277,  0.00000000000000 ]
    - # atom 8
      - [ -0.00190367787627,  0.00000000000000 ]
      - [  0.00352404604936,  0.00000000000000 ]
      - [  0.27315510282473,  0.00000000000000 ]
    - # atom 9
      - [ -0.00240176918661,  0.00000000000000 ]
      - [ -0.00026492582370,  0.00000000000000 ]
      - [  0.00001426160692,  0.00000000000000 ]
    - # atom 10
      - [ -0.00109358534068,  0.00000000000000 ]
      - [ -0.00384231977418,  0.00000000000000 ]
      - [ -0.27314709649041,  0.00000000000000 ]
    - # atom 11
      - [  0.00351513519942,  0.00000000000000 ]
      - [ -0.00131678182594,  0.00000000000000 ]
      - [  0.24979710539224,  0.00000000000000 ]
    - # atom 12
      - [  0.01660980541852,  0.00000000000000 ]
      - [ -0.00409497623450,  0.00000000000000 ]
      - [ -0.07005768837263,  0.00000000000000 ]
    - # atom 13
      - [  0.01526343577072,  0.00000000000000 ]
      - [  0.00752652585000,  0.00000000000000 ]
      - [  0.06996257365286,  0.00000000000000 ]
    - # atom 14
      - [ -0.02959518308460,  0.00000000000000 ]
      - [ -0.00320773049187,  0.00000000000000 ]
      - [  0.00011881232386,  0.00000000000000 ]
  - # 11
    frequency:    14.4076407345
    eigenvector:
    - # atom 1
      - [  0.02829805353939,  0.00000000000000 ]
      - [ -0.00957269753594,  0.00000000000000 ]
      - [ -0.01634340087071,  0.00000000000000 ]
    - # atom 2
      - [  0.01282014857561,  0.00000000000000 ]
      - [ -0.02506766515122,  0.00000000000000 ]
      - [ -0.20892694510791,  0.00000000000000 ]
    - # atom 3
      - [  0.00379161965865,  0.00000000000000 ]
      - [ -0.03521255053664,  0.00000000000000 ]
      - [  0.31248358830968,  0.00000000000000 ]
    - # atom 4
      - [ -0.00710245611345,  0.00000000000000 ]
      - [ -0.02734246056370,  0.00000000000000 ]
      - [ -0.20889125756538,  0.00000000000000 ]
    - # atom 5
      - [ -0.02529491220098,  0.00000000000000 ]
      - [ -0.01548168926894,  0.00000000000000 ]
      - [ -0.01634151846282,  0.00000000000000 ]
    - # atom 6
      - [ -0.00127215357478,  0.00000000000000 ]
      - [  0.01250804100568,  0.00000000000000 ]
      - [  0.47848932824506,  0.00000000000000 ]
    - # atom 7
      - [  0.00391076670485,  0.00000000000000 ]
      - [ -0.01007622513581,  0.00000000000000 ]
      - [ -0.19586208864984,  0.00000000000000 ]
    - # atom 8
      - [  0.00098667851793,  0.00000000000000 ]
      - [ -0.00382237828855,  0.00000000000000 ]
      - [ -0.24070216433266,  0.00000000000000 ]
    - # atom 9
      - [  0.00110217595820,  0.00000000000000 ]
      - [ -0.01045897448408,  0.00000000000000 ]
      - [  0.10326578716737,  0.00000000000000 ]
    - # atom 10
      - [ -0.00015240611495,  0.00000000000000 ]
      - [ -0.00401150127175,  0.00000000000000 ]
      - [ -0.24065940388252,  0.00000000000000 ]
    - # atom 11
      - [ -0.00153719117729,  0.00000000000000 ]
      - [ -0.01074012918278,  0.00000000000000 ]
      - [ -0.19573622359798,  0.00000000000000 ]
    - # atom 12
      - [  0.05714648007139,  0.00000000000000 ]
      - [ -0.13631255846367,  0.00000000000000 ]
      - [ -0.38161625020763,  0.00000000000000 ]
    - # atom 13
      - [ -0.02656637745406,  0.00000000000000 ]
      - [ -0.14532993518105,  0.00000000000000 ]
      - [ -0.38251963934467,  0.00000000000000 ]
    - # atom 14
      - [ -0.01976812914235,  0.00000000000000 ]
      - [  0.17880120283571,  0.00000000000000 ]
      - [  0.09618023116930,  0.00000000000000 ]
  - # 12
    frequency:    15.4735491815
    eigenvector:
    - # atom 1
      - [  0.19115300967666,  0.00000000000000 ]
      - [ -0.04409202894462,  0.00000000000000 ]
      - [ -0.03998092163318,  0.00000000000000 ]
    - # atom 2
      - [  0.16601588211190,  0.00000000000000 ]
      - [ -0.11909787929382,  0.00000000000000 ]
      - [  0.10601577644074,  0.00000000000000 ]
    - # atom 3
      - [  0.03969011613392,  0.00000000000000 ]
      - [ -0.36347156388932,  0.00000000000000 ]
      - [ -0.15653360518172,  0.00000000000000 ]
    - # atom 4
      - [ -0.13647632457890,  0.00000000000000 ]
      - [ -0.15207911549066,  0.00000000000000 ]
      - [  0.10607141331503,  0.00000000000000 ]
    - # atom 5
      - [ -0.17697288916387,  0.00000000000000 ]
      - [ -0.08423506877519,  0.00000000000000 ]
      - [ -0.04000769723659,  0.00000000000000 ]
    - # atom 6
      - [ -0.02819304583465,  0.00000000000000 ]
      - [  0.25846137497708,  0.00000000000000 ]
      - [ -0.25224718902636,  0.00000000000000 ]
    - # atom 7
      - [  0.02361209319317,  0.00000000000000 ]
      - [ -0.08434417708290,  0.00000000000000 ]
      - [  0.10224368734385,  0.00000000000000 ]
    - # atom 8
      - [  0.00832430345587,  0.00000000000000 ]
      - [  0.02014732910838,  0.00000000000000 ]
      - [  0.13842345142183,  0.00000000000000 ]
    - # atom 9
      - [  0.01154441071158,  0.00000000000000 ]
      - [ -0.10556396771893,  0.00000000000000 ]
      - [ -0.03227318693825,  0.00000000000000 ]
    - # atom 10
      - [ -0.01252941088658,  0.00000000000000 ]
      - [  0.01783867831370,  0.00000000000000 ]
      - [  0.13852246896317,  0.00000000000000 ]
    - # atom 11
      - [ -0.00474598525497,  0.00000000000000 ]
      - [ -0.08749091665421,  0.00000000000000 ]
      - [  0.10231848081406,  0.00000000000000 ]
    - # atom 12
      - [  0.03618192933429,  0.00000000000000 ]
      - [  0.03516709132425,  0.00000000000000 ]
      - [ -0.22143243077363,  0.00000000000000 ]
    - # atom 13
      - [ -0.04292989762498,  0.00000000000000 ]
      - [  0.02643099935668,  0.00000000000000 ]
      - [ -0.22212334583717,  0.00000000000000 ]
    - # atom 14