mesh: [     1,     1,     1 ]
nqpoint: 1      
reciprocal_lattice:
- [   0.05172532,   0.00000000,   0.00000000 ] # a*
- [   0.00000000,   0.04804613,   0.00000000 ] # b*
- [   0.00000000,   0.00000000,   0.05957693 ] # c*
natom:   15     
lattice:
- [    19.332889999999999,     0.000000000000000,     0.000000000000000 ] # a
- [     0.000000000000000,    20.813330000000001,     0.000000000000000 ] # b
- [     0.000000000000000,     0.000000000000000,    16.785019999999999 ] # c
points:
- symbol: C  # 1
  coordinates: [  0.438028932390817,  0.513488683006549,  0.500208754278578 ]
  mass: 12.010700
- symbol: C  # 2
  coordinates: [  0.436958499073431,  0.446357115755940,  0.500468155601300 ]
  mass: 12.010700
- symbol: C  # 3
  coordinates: [  0.500709608064633,  0.547331592333426,  0.499798856468588 ]
  mass: 12.010700
- symbol: C  # 4
  coordinates: [  0.562495904337860,  0.511954669948462,  0.499322057382654 ]
  mass: 12.010700
- symbol: C  # 5
  coordinates: [  0.561728306849239,  0.444926100225647,  0.499607825541527 ]
  mass: 12.010700
- symbol: C  # 6
  coordinates: [  0.498848184488263,  0.411791764522614,  0.500248981642888 ]
  mass: 12.010700
- symbol: C  # 7
  coordinates: [  0.502233861552817,  0.619667585822728,  0.501042159760756 ]
  mass: 12.010700
- symbol: H  # 8
  coordinates: [  0.451636560466360,  0.640095692130066,  0.485619639430163 ]
  mass: 1.007940
- symbol: H  # 9
  coordinates: [  0.540710635863466,  0.638664840068746,  0.458983616253031 ]
  mass: 1.007940
- symbol: H  # 10
  coordinates: [  0.516309008911868,  0.637655909632412,  0.560562099667797 ]
  mass: 1.007940
- symbol: H  # 11
  coordinates: [  0.389336462997909,  0.540113919618924,  0.500185992016454 ]
  mass: 1.007940
- symbol: H  # 12
  coordinates: [  0.387566981226984,  0.421018350328385,  0.500672567848227 ]
  mass: 1.007940
- symbol: H  # 13
  coordinates: [  0.498176287561242,  0.359403828996561,  0.500334860984889 ]
  mass: 1.007940
- symbol: H  # 14
  coordinates: [  0.611869942143552,  0.537473577740255,  0.498591861299383 ]
  mass: 1.007940
- symbol: H  # 15
  coordinates: [  0.610416933463369,  0.418445493570307,  0.499159318570276 ]
  mass: 1.007940
phonon:
- q-position: [    0.0000000,    0.0000000,    0.0000000 ]
  weight: 1    
  band:
  - # 1
    frequency:    -0.3772780988
    eigenvector:
    - # atom 1
      - [  0.00108140431865,  0.00000000000000 ]
      - [  0.00719238835356,  0.00000000000000 ]
      - [ -0.23246707043210,  0.00000000000000 ]
    - # atom 2
      - [ -0.00757014061036,  0.00000000000000 ]
      - [  0.00808919521967,  0.00000000000000 ]
      - [  0.07526985948131,  0.00000000000000 ]
    - # atom 3
      - [  0.00593654659087,  0.00000000000000 ]
      - [ -0.00133997824265,  0.00000000000000 ]
      - [ -0.21013945193284,  0.00000000000000 ]
    - # atom 4
      - [  0.00310021967215,  0.00000000000000 ]
      - [ -0.01000991559833,  0.00000000000000 ]
      - [  0.13266905649035,  0.00000000000000 ]
    - # atom 5
      - [ -0.00558184432032,  0.00000000000000 ]
      - [ -0.00867344175558,  0.00000000000000 ]
      - [  0.44110487449397,  0.00000000000000 ]
    - # atom 6
      - [ -0.01125508684622,  0.00000000000000 ]
      - [  0.00055362864629,  0.00000000000000 ]
      - [  0.41270497897461,  0.00000000000000 ]
    - # atom 7
      - [  0.01266959050800,  0.00000000000000 ]
      - [  0.00323999282211,  0.00000000000000 ]
      - [ -0.54840256960350,  0.00000000000000 ]
    - # atom 8
      - [  0.01089006164548,  0.00000000000000 ]
      - [ -0.01448124155896,  0.00000000000000 ]
      - [ -0.21138383811166,  0.00000000000000 ]
    - # atom 9
      - [  0.02175976976685,  0.00000000000000 ]
      - [ -0.04682070068094,  0.00000000000000 ]
      - [ -0.16667681354241,  0.00000000000000 ]
    - # atom 10
      - [ -0.02010705720474,  0.00000000000000 ]
      - [  0.06634233064042,  0.00000000000000 ]
      - [ -0.17696742037990,  0.00000000000000 ]
    - # atom 11
      - [  0.00126094775890,  0.00000000000000 ]
      - [  0.00363633184522,  0.00000000000000 ]
      - [ -0.14333168606445,  0.00000000000000 ]
    - # atom 12
      - [ -0.00322247815697,  0.00000000000000 ]
      - [  0.00416361708088,  0.00000000000000 ]
      - [  0.01481467692845,  0.00000000000000 ]
    - # atom 13
      - [ -0.00509702017499,  0.00000000000000 ]
      - [  0.00027528169467,  0.00000000000000 ]
      - [  0.18928175462586,  0.00000000000000 ]
    - # atom 14
      - [  0.00231540443447,  0.00000000000000 ]
      - [ -0.00526783583718,  0.00000000000000 ]
      - [  0.04568003973300,  0.00000000000000 ]
    - # atom 15
      - [ -0.00220981864913,  0.00000000000000 ]
      - [ -0.00457486638188,  0.00000000000000 ]
      - [  0.20439215105005,  0.00000000000000 ]
  - # 2
    frequency:    -0.3389450781
    eigenvector:
    - # atom 1
      - [  0.05067122001614,  0.00000000000000 ]
      - [  0.24447969731910,  0.00000000000000 ]
      - [  0.00629336205469,  0.00000000000000 ]
    - # atom 2
      - [ -0.23355841329100,  0.00000000000000 ]
      - [  0.24869465506504,  0.00000000000000 ]
      - [ -0.00285032282679,  0.00000000000000 ]
    - # atom 3
      - [  0.19396385090033,  0.00000000000000 ]
      - [ -0.00191427167457,  0.00000000000000 ]
      - [  0.00616492427851,  0.00000000000000 ]
    - # atom 4
      - [  0.04403626305770,  0.00000000000000 ]
      - [ -0.24497982649410,  0.00000000000000 ]
      - [ -0.00359176268286,  0.00000000000000 ]
    - # atom 5
      - [ -0.23976886391453,  0.00000000000000 ]
      - [ -0.24203913671196,  0.00000000000000 ]
      - [ -0.01274708181061,  0.00000000000000 ]
    - # atom 6
      - [ -0.37994261902542,  0.00000000000000 ]
      - [  0.00522876645472,  0.00000000000000 ]
      - [ -0.01238152542340,  0.00000000000000 ]
    - # atom 7
      - [  0.50041016208483,  0.00000000000000 ]
      - [ -0.00799189945429,  0.00000000000000 ]
      - [  0.01688840870052,  0.00000000000000 ]
    - # atom 8
      - [  0.17096531283154,  0.00000000000000 ]
      - [  0.05600067023138,  0.00000000000000 ]
      - [  0.00243390796988,  0.00000000000000 ]
    - # atom 9
      - [  0.17075790899628,  0.00000000000000 ]
      - [ -0.04478286295903,  0.00000000000000 ]
      - [  0.00829796648714,  0.00000000000000 ]
    - # atom 10
      - [  0.16361835909959,  0.00000000000000 ]
      - [ -0.02036460219007,  0.00000000000000 ]
      - [  0.00659481204644,  0.00000000000000 ]
    - # atom 11
      - [  0.04731195168697,  0.00000000000000 ]
      - [  0.12624730791398,  0.00000000000000 ]
      - [  0.00392278317833,  0.00000000000000 ]
    - # atom 12
      - [ -0.09877238712135,  0.00000000000000 ]
      - [  0.12838769991864,  0.00000000000000 ]
      - [ -0.00077144006311,  0.00000000000000 ]
    - # atom 13
      - [ -0.17434835887000,  0.00000000000000 ]
      - [  0.00228302793286,  0.00000000000000 ]
      - [ -0.00570034783420,  0.00000000000000 ]
    - # atom 14
      - [  0.04404362630865,  0.00000000000000 ]
      - [ -0.12722222035680,  0.00000000000000 ]
      - [ -0.00119795911711,  0.00000000000000 ]
    - # atom 15
      - [ -0.10200007979077,  0.00000000000000 ]
      - [ -0.12565097633191,  0.00000000000000 ]
      - [ -0.00590255273737,  0.00000000000000 ]
  - # 3
    frequency:    -0.0000008027
    eigenvector:
    - # atom 1
      - [ -0.36104703214213,  0.00000000000000 ]
      - [ -0.00000000007537,  0.00000000000000 ]
      - [  0.00000000002637,  0.00000000000000 ]
    - # atom 2
      - [ -0.36104703214231,  0.00000000000000 ]
      - [ -0.00000000007537,  0.00000000000000 ]
      - [  0.00000000002661,  0.00000000000000 ]
    - # atom 3
      - [ -0.36104703214205,  0.00000000000000 ]
      - [ -0.00000000007553,  0.00000000000000 ]
      - [  0.00000000002490,  0.00000000000000 ]
    - # atom 4
      - [ -0.36104703214215,  0.00000000000000 ]
      - [ -0.00000000007569,  0.00000000000000 ]
      - [  0.00000000002369,  0.00000000000000 ]
    - # atom 5
      - [ -0.36104703214233,  0.00000000000000 ]
      - [ -0.00000000007569,  0.00000000000000 ]
      - [  0.00000000002394,  0.00000000000000 ]
    - # atom 6
      - [ -0.36104703214241,  0.00000000000000 ]
      - [ -0.00000000007553,  0.00000000000000 ]
      - [  0.00000000002540,  0.00000000000000 ]
    - # atom 7
      - [ -0.36104703214182,  0.00000000000000 ]
      - [ -0.00000000007553,  0.00000000000000 ]
      - [  0.00000000002461,  0.00000000000000 ]
    - # atom 8
      - [ -0.10459163689639,  0.00000000000000 ]
      - [ -0.00000000002186,  0.00000000000000 ]
      - [  0.00000000000753,  0.00000000000000 ]
    - # atom 9
      - [ -0.10459163689658,  0.00000000000000 ]
      - [ -0.00000000002194,  0.00000000000000 ]
      - [  0.00000000000679,  0.00000000000000 ]
    - # atom 10
      - [ -0.10459163689585,  0.00000000000000 ]
      - [ -0.00000000002184,  0.00000000000000 ]
      - [  0.00000000000699,  0.00000000000000 ]
    - # atom 11
      - [ -0.10459163689636,  0.00000000000000 ]
      - [ -0.00000000002180,  0.00000000000000 ]
      - [  0.00000000000792,  0.00000000000000 ]
    - # atom 12
      - [ -0.10459163689646,  0.00000000000000 ]
      - [ -0.00000000002180,  0.00000000000000 ]
      - [  0.00000000000804,  0.00000000000000 ]
    - # atom 13
      - [ -0.10459163689651,  0.00000000000000 ]
      - [ -0.00000000002188,  0.00000000000000 ]
      - [  0.00000000000741,  0.00000000000000 ]
    - # atom 14
      - [ -0.10459163689638,  0.00000000000000 ]
      - [ -0.00000000002196,  0.00000000000000 ]
      - [  0.00000000000653,  0.00000000000000 ]
    - # atom 15
      - [ -0.10459163689647,  0.00000000000000 ]
      - [ -0.00000000002196,  0.00000000000000 ]
      - [  0.00000000000666,  0.00000000000000 ]
  - # 4
    frequency:    -0.0000005779
    eigenvector:
    - # atom 1
      - [ -0.00000000005773,  0.00000000000000 ]
      - [  0.32619948487991,  0.00000000000000 ]
      - [  0.15475417758169,  0.00000000000000 ]
    - # atom 2
      - [ -0.00000000005659,  0.00000000000000 ]
      - [  0.32619948487986,  0.00000000000000 ]
      - [  0.15475417757662,  0.00000000000000 ]
    - # atom 3
      - [ -0.00000000005829,  0.00000000000000 ]
      - [  0.32619948488096,  0.00000000000000 ]
      - [  0.15475417759516,  0.00000000000000 ]
    - # atom 4
      - [ -0.00000000005757,  0.00000000000000 ]
      - [  0.32619948488199,  0.00000000000000 ]
      - [  0.15475417760354,  0.00000000000000 ]
    - # atom 5
      - [ -0.00000000005643,  0.00000000000000 ]
      - [  0.32619948488198,  0.00000000000000 ]
      - [  0.15475417759855,  0.00000000000000 ]
    - # atom 6
      - [ -0.00000000005595,  0.00000000000000 ]
      - [  0.32619948488090,  0.00000000000000 ]
      - [  0.15475417758501,  0.00000000000000 ]
    - # atom 7
      - [ -0.00000000005964,  0.00000000000000 ]
      - [  0.32619948488092,  0.00000000000000 ]
      - [  0.15475417760022,  0.00000000000000 ]
    - # atom 8
      - [ -0.00000000001714,  0.00000000000000 ]
      - [  0.09449665844372,  0.00000000000000 ]
      - [  0.04483070434217,  0.00000000000000 ]
    - # atom 9
      - [ -0.00000000001674,  0.00000000000000 ]
      - [  0.09449665844456,  0.00000000000000 ]
      - [  0.04483070434369,  0.00000000000000 ]
    - # atom 10
      - [ -0.00000000001824,  0.00000000000000 ]
      - [  0.09449665844285,  0.00000000000000 ]
      - [  0.04483070434325,  0.00000000000000 ]
    - # atom 11
      - [ -0.00000000001686,  0.00000000000000 ]
      - [  0.09449665844319,  0.00000000000000 ]
      - [  0.04483070433540,  0.00000000000000 ]
    - # atom 12
      - [ -0.00000000001627,  0.00000000000000 ]
      - [  0.09449665844317,  0.00000000000000 ]
      - [  0.04483070433278,  0.00000000000000 ]
    - # atom 13
      - [ -0.00000000001594,  0.00000000000000 ]
      - [  0.09449665844371,  0.00000000000000 ]
      - [  0.04483070433713,  0.00000000000000 ]
    - # atom 14
      - [ -0.00000000001677,  0.00000000000000 ]
      - [  0.09449665844427,  0.00000000000000 ]
      - [  0.04483070434671,  0.00000000000000 ]
    - # atom 15
      - [ -0.00000000001619,  0.00000000000000 ]
      - [  0.09449665844426,  0.00000000000000 ]
      - [  0.04483070434413,  0.00000000000000 ]
  - # 5
    frequency:     0.0000007781
    eigenvector:
    - # atom 1
      - [  0.00000000005527,  0.00000000000000 ]
      - [ -0.15475417759042,  0.00000000000000 ]
      - [  0.32619948487642,  0.00000000000000 ]
    - # atom 2
      - [  0.00000000005377,  0.00000000000000 ]
      - [ -0.15475417759041,  0.00000000000000 ]
      - [  0.32619948487469,  0.00000000000000 ]
    - # atom 3
      - [  0.00000000005603,  0.00000000000000 ]
      - [ -0.15475417759170,  0.00000000000000 ]
      - [  0.32619948488212,  0.00000000000000 ]
    - # atom 4
      - [  0.00000000005530,  0.00000000000000 ]
      - [ -0.15475417759296,  0.00000000000000 ]
      - [  0.32619948488611,  0.00000000000000 ]
    - # atom 5
      - [  0.00000000005380,  0.00000000000000 ]
      - [ -0.15475417759294,  0.00000000000000 ]
      - [  0.32619948488439,  0.00000000000000 ]
    - # atom 6
      - [  0.00000000005302,  0.00000000000000 ]
      - [ -0.15475417759167,  0.00000000000000 ]
      - [  0.32619948487866,  0.00000000000000 ]
    - # atom 7
      - [  0.00000000005761,  0.00000000000000 ]
      - [ -0.15475417759175,  0.00000000000000 ]
      - [  0.32619948488377,  0.00000000000000 ]
    - # atom 8
      - [  0.00000000001689,  0.00000000000000 ]
      - [ -0.04483070433983,  0.00000000000000 ]
      - [  0.09449665844440,  0.00000000000000 ]
    - # atom 9
      - [  0.00000000001700,  0.00000000000000 ]
      - [ -0.04483070434023,  0.00000000000000 ]
      - [  0.09449665844486,  0.00000000000000 ]
    - # atom 10
      - [  0.00000000001655,  0.00000000000000 ]
      - [ -0.04483070434060,  0.00000000000000 ]
      - [  0.09449665844472,  0.00000000000000 ]
    - # atom 11
      - [  0.00000000001618,  0.00000000000000 ]
      - [ -0.04483070433954,  0.00000000000000 ]
      - [  0.09449665844152,  0.00000000000000 ]
    - # atom 12
      - [  0.00000000001541,  0.00000000000000 ]
      - [ -0.04483070433953,  0.00000000000000 ]
      - [  0.09449665844062,  0.00000000000000 ]
    - # atom 13
      - [  0.00000000001502,  0.00000000000000 ]
      - [ -0.04483070434019,  0.00000000000000 ]
      - [  0.09449665844268,  0.00000000000000 ]
    - # atom 14
      - [  0.00000000001620,  0.00000000000000 ]
      - [ -0.04483070434085,  0.00000000000000 ]
      - [  0.09449665844653,  0.00000000000000 ]
    - # atom 15
      - [  0.00000000001543,  0.00000000000000 ]
      - [ -0.04483070434084,  0.00000000000000 ]
      - [  0.09449665844565,  0.00000000000000 ]
  - # 6
    frequency:     0.1365987014
    eigenvector:
    - # atom 1
      - [ -0.00076696329836,  0.00000000000000 ]
      - [  0.00002884745478,  0.00000000000000 ]
      - [ -0.37487459340397,  0.00000000000000 ]
    - # atom 2
      - [ -0.00228742412945,  0.00000000000000 ]
      - [ -0.00080952302315,  0.00000000000000 ]
      - [ -0.52046572980268,  0.00000000000000 ]
    - # atom 3
      - [  0.00112981606570,  0.00000000000000 ]
      - [  0.00053006552802,  0.00000000000000 ]
      - [  0.09874150365462,  0.00000000000000 ]
    - # atom 4
      - [  0.00417233613580,  0.00000000000000 ]
      - [  0.00112535916393,  0.00000000000000 ]
      - [  0.42718178121052,  0.00000000000000 ]
    - # atom 5
      - [  0.00254478434281,  0.00000000000000 ]
      - [  0.00107228255084,  0.00000000000000 ]
      - [  0.28430660744495,  0.00000000000000 ]
    - # atom 6
      - [ -0.00135123812663,  0.00000000000000 ]
      - [ -0.00021039118632,  0.00000000000000 ]
      - [ -0.19188667406695,  0.00000000000000 ]
    - # atom 7
      - [ -0.00302301901378,  0.00000000000000 ]
      - [ -0.00135894200926,  0.00000000000000 ]
      - [  0.24586373105062,  0.00000000000000 ]
    - # atom 8
      - [  0.01396501741252,  0.00000000000000 ]
      - [  0.00659475209617,  0.00000000000000 ]
      - [  0.02686820693931,  0.00000000000000 ]
    - # atom 9
      - [  0.03905884680473,  0.00000000000000 ]
      - [  0.01845466016151,  0.00000000000000 ]
      - [  0.12361809694756,  0.00000000000000 ]
    - # atom 10
      - [ -0.05669213166402,  0.00000000000000 ]
      - [ -0.02713226253782,  0.00000000000000 ]
      - [  0.09633136330440,  0.00000000000000 ]
    - # atom 11
      - [ -0.00017118514969,  0.00000000000000 ]
      - [  0.00002545945709,  0.00000000000000 ]
      - [ -0.18319676537873,  0.00000000000000 ]
    - # atom 12
      - [ -0.00101494622629,  0.00000000000000 ]
      - [ -0.00029122876053,  0.00000000000000 ]
      - [ -0.25822634546426,  0.00000000000000 ]
    - # atom 13
      - [ -0.00048583090935,  0.00000000000000 ]
      - [ -0.00010146406022,  0.00000000000000 ]
      - [ -0.08814786189958,  0.00000000000000 ]
    - # atom 14
      - [  0.00243435469937,  0.00000000000000 ]
      - [  0.00063935277093,  0.00000000000000 ]
      - [  0.23189386358540,  0.00000000000000 ]
    - # atom 15
      - [  0.00146194429286,  0.00000000000000 ]
      - [  0.00050692743835,  0.00000000000000 ]
      - [  0.15833086666500,  0.00000000000000 ]
  - # 7
    frequency:     0.5238120976
    eigenvector:
    - # atom 1
      - [ -0.00508942813789,  0.00000000000000 ]
      - [ -0.00242227151572,  0.00000000000000 ]
      - [ -0.01308110726019,  0.00000000000000 ]
    - # atom 2
      - [ -0.00178890659425,  0.00000000000000 ]
      - [ -0.00832539318001,  0.00000000000000 ]
      - [ -0.05736433883728,  0.00000000000000 ]
    - # atom 3
      - [ -0.01310093173376,  0.00000000000000 ]
      - [  0.00001502374347,  0.00000000000000 ]
      - [  0.04466879571091,  0.00000000000000 ]
    - # atom 4
      - [ -0.00479256084197,  0.00000000000000 ]
      - [  0.00199308034310,  0.00000000000000 ]
      - [  0.08239256366170,  0.00000000000000 ]
    - # atom 5
      - [ -0.00107158635419,  0.00000000000000 ]
      - [  0.00745908857707,  0.00000000000000 ]
      - [  0.03847805814336,  0.00000000000000 ]
    - # atom 6
      - [ -0.00309217112167,  0.00000000000000 ]
      - [ -0.00055957799738,  0.00000000000000 ]
      - [ -0.03678511482547,  0.00000000000000 ]
    - # atom 7
      - [  0.01692651188842,  0.00000000000000 ]
      - [  0.00145488080344,  0.00000000000000 ]
      - [ -0.04040207342807,  0.00000000000000 ]
    - # atom 8
      - [ -0.13675746333390,  0.00000000000000 ]
      - [ -0.00380987810330,  0.00000000000000 ]
      - [  0.52032528433839,  0.00000000000000 ]
    - # atom 9
      - [ -0.38780157440743,  0.00000000000000 ]
      - [ -0.00641155931227,  0.00000000000000 ]
      - [ -0.43262220564285,  0.00000000000000 ]
    - # atom 10
      - [  0.56794579742499,  0.00000000000000 ]
      - [  0.01210965379618,  0.00000000000000 ]
      - [ -0.17088851385098,  0.00000000000000 ]
    - # atom 11
      - [ -0.00164212892045,  0.00000000000000 ]
      - [ -0.00130698381178,  0.00000000000000 ]
      - [ -0.00354175098521,  0.00000000000000 ]
    - # atom 12
      - [ -0.00028851734025,  0.00000000000000 ]
      - [ -0.00284054790898,  0.00000000000000 ]
      - [ -0.02674526541594,  0.00000000000000 ]
    - # atom 13
      - [  0.00101791686399,  0.00000000000000 ]
      - [ -0.00019265009002,  0.00000000000000 ]
      - [ -0.01708103573874,  0.00000000000000 ]
    - # atom 14
      - [ -0.00115481722526,  0.00000000000000 ]
      - [  0.00106006215240,  0.00000000000000 ]
      - [  0.04585636808613,  0.00000000000000 ]
    - # atom 15
      - [  0.00013572785636,  0.00000000000000 ]
      - [  0.00272149529274,  0.00000000000000 ]
      - [  0.02288346842456,  0.00000000000000 ]
  - # 8
    frequency:     6.0070878018
    eigenvector:
    - # atom 1
      - [ -0.00456915324152,  0.00000000000000 ]
      - [  0.00154118963402,  0.00000000000000 ]
      - [ -0.38135594345886,  0.00000000000000 ]
    - # atom 2
      - [ -0.00035410715292,  0.00000000000000 ]
      - [  0.00220850040155,  0.00000000000000 ]
      - [  0.00925809445679,  0.00000000000000 ]
    - # atom 3
      - [ -0.00417664832529,  0.00000000000000 ]
      - [  0.00029878177940,  0.00000000000000 ]
      - [ -0.30293453389523,  0.00000000000000 ]
    - # atom 4
      - [ -0.00235976135214,  0.00000000000000 ]
      - [  0.00295620968196,  0.00000000000000 ]
      - [ -0.37202599161378,  0.00000000000000 ]
    - # atom 5
      - [  0.00078356192965,  0.00000000000000 ]
      - [  0.00523878855690,  0.00000000000000 ]
      - [  0.03548494862300,  0.00000000000000 ]
    - # atom 6
      - [  0.00273015812561,  0.00000000000000 ]
      - [  0.00582680668247,  0.00000000000000 ]
      - [  0.40374719522670,  0.00000000000000 ]
    - # atom 7
      - [  0.00509310822730,  0.00000000000000 ]
      - [ -0.01363365147191,  0.00000000000000 ]
      - [  0.42065148122686,  0.00000000000000 ]
    - # atom 8
      - [ -0.01322312549284,  0.00000000000000 ]
      - [  0.04235588085065,  0.00000000000000 ]
      - [  0.25372146373641,  0.00000000000000 ]
    - # atom 9
      - [ -0.03364583751471,  0.00000000000000 ]
      - [  0.11770523274060,  0.00000000000000 ]
      - [  0.15272284159863,  0.00000000000000 ]
    - # atom 10
      - [  0.05643506126407,  0.00000000000000 ]
      - [ -0.18006812975259,  0.00000000000000 ]
      - [  0.17310305305005,  0.00000000000000 ]
    - # atom 11
      - [ -0.00125547617851,  0.00000000000000 ]
      - [  0.00046638343383,  0.00000000000000 ]
      - [ -0.14311993350913,  0.00000000000000 ]
    - # atom 12
      - [  0.00045341709956,  0.00000000000000 ]
      - [ -0.00015927954793,  0.00000000000000 ]
      - [  0.03558903331881,  0.00000000000000 ]
    - # atom 13
      - [  0.00205773121887,  0.00000000000000 ]
      - [  0.00187109184769,  0.00000000000000 ]
      - [  0.26265732125396,  0.00000000000000 ]
    - # atom 14
      - [ -0.00133787096487,  0.00000000000000 ]
      - [  0.00132424723524,  0.00000000000000 ]
      - [ -0.13873906569574,  0.00000000000000 ]
    - # atom 15
      - [  0.00036402045730,  0.00000000000000 ]
      - [  0.00118948269416,  0.00000000000000 ]
      - [  0.05018661851218,  0.00000000000000 ]
  - # 9
    frequency:    10.0807675754
    eigenvector:
    - # atom 1
      - [  0.28963731702861,  0.00000000000000 ]
      - [  0.12263325062226,  0.00000000000000 ]
      - [ -0.01889352520983,  0.00000000000000 ]
    - # atom 2
      - [ -0.02812484846444,  0.00000000000000 ]
      - [  0.17085776533080,  0.00000000000000 ]
      - [  0.01689671277141,  0.00000000000000 ]
    - # atom 3
      - [  0.33812618108005,  0.00000000000000 ]
      - [  0.00213055469015,  0.00000000000000 ]
      - [ -0.00171709872099,  0.00000000000000 ]
    - # atom 4
      - [  0.28083106075440,  0.00000000000000 ]
      - [ -0.13720240915344,  0.00000000000000 ]
      - [  0.01220684542839,  0.00000000000000 ]
    - # atom 5
      - [ -0.03806263034363,  0.00000000000000 ]
      - [ -0.17846615479097,  0.00000000000000 ]
      - [ -0.01788946958640,  0.00000000000000 ]
    - # atom 6
      - [ -0.14454802542259,  0.00000000000000 ]
      - [ -0.00546003444587,  0.00000000000000 ]
      - [  0.00287299346806,  0.00000000000000 ]
    - # atom 7
      - [ -0.50368737640256,  0.00000000000000 ]
      - [  0.01979890500275,  0.00000000000000 ]
      - [  0.00453358649365,  0.00000000000000 ]
    - # atom 8
      - [ -0.25130661722010,  0.00000000000000 ]
      - [ -0.22455964509979,  0.00000000000000 ]
      - [  0.01898193682182,  0.00000000000000 ]
    - # atom 9
      - [ -0.25495405282482,  0.00000000000000 ]
      - [  0.18565791284079,  0.00000000000000 ]
      - [ -0.01242781796978,  0.00000000000000 ]
    - # atom 10
      - [ -0.22646665134720,  0.00000000000000 ]
      - [  0.06996144149261,  0.00000000000000 ]
      - [ -0.00095476552165,  0.00000000000000 ]
    - # atom 11
      - [  0.11649520903416,  0.00000000000000 ]
      - [  0.09056724274024,  0.00000000000000 ]
      - [ -0.01230595550963,  0.00000000000000 ]
    - # atom 12
      - [ -0.03984016522987,  0.00000000000000 ]
      - [  0.10765503209589,  0.00000000000000 ]
      - [  0.01043565811646,  0.00000000000000 ]
    - # atom 13
      - [ -0.08648736020469,  0.00000000000000 ]
      - [ -0.00105024610187,  0.00000000000000 ]
      - [  0.00236002332135,  0.00000000000000 ]
    - # atom 14
      - [  0.11545640673170,  0.00000000000000 ]
      - [ -0.10126908366632,  0.00000000000000 ]
      - [  0.01046389602326,  0.00000000000000 ]
    - # atom 15
      - [ -0.04317127874910,  0.00000000000000 ]
      - [ -0.10725839460081,  0.00000000000000 ]
      - [ -0.00968371214955,  0.00000000000000 ]
  - # 10
    frequency:    11.9322889444
    eigenvector:
    - # atom 1
      - [  0.01437710193256,  0.00000000000000 ]
      - [  0.00485582291999,  0.00000000000000 ]
      - [  0.42410764551585,  0.00000000000000 ]
    - # atom 2
      - [ -0.00374817528706,  0.00000000000000 ]
      - [  0.00651784955000,  0.00000000000000 ]
      - [ -0.41649469849049,  0.00000000000000 ]
    - # atom 3
      - [  0.01508048218723,  0.00000000000000 ]
      - [  0.00008036313030,  0.00000000000000 ]
      - [  0.00185583743310,  0.00000000000000 ]
    - # atom 4
      - [  0.00875524143589,  0.00000000000000 ]
      - [ -0.00560473918314,  0.00000000000000 ]
      - [ -0.41862341108338,  0.00000000000000 ]
    - # atom 5
      - [  0.00082711873378,  0.00000000000000 ]
      - [ -0.00670323050394,  0.00000000000000 ]
      - [  0.42074988376278,  0.00000000000000 ]
    - # atom 6
      - [ -0.00583540214146,  0.00000000000000 ]
      - [ -0.00023659740746,  0.00000000000000 ]
      - [ -0.00317695505852,  0.00000000000000 ]
    - # atom 7
      - [ -0.02265294181758,  0.00000000000000 ]
      - [  0.00081774114362,  0.00000000000000 ]
      - [ -0.00115208371028,  0.00000000000000 ]
    - # atom 8
      - [ -0.00881371814762,  0.00000000000000 ]
      - [ -0.00698244292397,  0.00000000000000 ]
      - [ -0.00353773332391,  0.00000000000000 ]
    - # atom 9
      - [ -0.00907930593842,  0.00000000000000 ]
      - [  0.00055374024569,  0.00000000000000 ]
      - [ -0.00279500542881,  0.00000000000000 ]
    - # atom 10
      - [ -0.00762584346493,  0.00000000000000 ]
      - [  0.00778331850911,  0.00000000000000 ]
      - [ -0.00279383273696,  0.00000000000000 ]
    - # atom 11
      - [  0.00582870259151,  0.00000000000000 ]
      - [  0.00421512426253,  0.00000000000000 ]
      - [  0.26837145476588,  0.00000000000000 ]
    - # atom 12
      - [ -0.00299789007169,  0.00000000000000 ]
      - [  0.00440303910281,  0.00000000000000 ]
      - [ -0.27410495450346,  0.00000000000000 ]
    - # atom 13
      - [ -0.00321265416477,  0.00000000000000 ]
      - [ -0.00005909838510,  0.00000000000000 ]
      - [ -0.00712549964893,  0.00000000000000 ]
    - # atom 14
      - [  0.00235362575307,  0.00000000000000 ]
      - [ -0.00467313127257,  0.00000000000000 ]
      - [ -0.27122752057922,  0.00000000000000 ]
    - # atom 15
      - [  0.00006187474741,  0.00000000000000 ]
      - [ -0.00429888585094,  0.00000000000000 ]
      - [  0.26813033479451,  0.00000000000000 ]
  - # 11
    frequency:    13.7370657477
    eigenvector:
    - # atom 1
      - [  0.01074834764002,  0.00000000000000 ]
      - [ -0.00858425909186,  0.00000000000000 ]
      - [ -0.08867944903464,  0.00000000000000 ]
    - # atom 2
      - [  0.00922716029486,  0.00000000000000 ]
      - [ -0.01342381968150,  0.00000000000000 ]
      - [ -0.26122080969519,  0.00000000000000 ]
    - # atom 3
      - [  0.00310058716510,  0.00000000000000 ]
      - [  0.01931156040008,  0.00000000000000 ]
      - [  0.60025345059922,  0.00000000000000 ]
    - # atom 4
      - [ -0.01435183474386,  0.00000000000000 ]
      - [ -0.00763773150607,  0.00000000000000 ]
      - [ -0.08487107067163,  0.00000000000000 ]
    - # atom 5
      - [ -0.01239138630561,  0.00000000000000 ]
      - [ -0.01264430352265,  0.00000000000000 ]
      - [ -0.26140669879926,  0.00000000000000 ]
    - # atom 6
      - [  0.00273932803166,  0.00000000000000 ]
      - [ -0.02636360999776,  0.00000000000000 ]
      - [  0.39905426432401,  0.00000000000000 ]
    - # atom 7
      - [  0.00213854923757,  0.00000000000000 ]
      - [  0.04220238912426,  0.00000000000000 ]
      - [ -0.02494211724173,  0.00000000000000 ]
    - # atom 8
      - [  0.00377401680125,  0.00000000000000 ]
      - [ -0.03818620320013,  0.00000000000000 ]
      - [ -0.10360293180805,  0.00000000000000 ]
    - # atom 9
      - [ -0.00015844757261,  0.00000000000000 ]
      - [ -0.12531462987022,  0.00000000000000 ]
      - [ -0.08623742248029,  0.00000000000000 ]
    - # atom 10
      - [ -0.00291452888114,  0.00000000000000 ]
      - [  0.21188231144100,  0.00000000000000 ]
      - [ -0.08207706578502,  0.00000000000000 ]
    - # atom 11
      - [ -0.00007264352748,  0.00000000000000 ]
      - [ -0.00797790133247,  0.00000000000000 ]
      - [ -0.19513498773327,  0.00000000000000 ]
    - # atom 12
      - [  0.00028405281170,  0.00000000000000 ]
      - [ -0.00070926813168,  0.00000000000000 ]
      - [ -0.24079355010678,  0.00000000000000 ]
    - # atom 13
      - [  0.00134636102737,  0.00000000000000 ]
      - [ -0.00754265878593,  0.00000000000000 ]
      - [  0.19725160427057,  0.00000000000000 ]
    - # atom 14
      - [ -0.00358035132068,  0.00000000000000 ]
      - [ -0.00738915059866,  0.00000000000000 ]
      - [ -0.20224047413555,  0.00000000000000 ]
    - # atom 15
      - [ -0.00285793471164,  0.00000000000000 ]
      - [ -0.00011622388432,  0.00000000000000 ]
      - [ -0.24745988908672,  0.00000000000000 ]
  - # 12
    frequency:    15.4086885038
    eigenvector:
    - # atom 1
      - [ -0.19880067254732,  0.00000000000000 ]
      - [  0.08502812411074,  0.00000000000000 ]
      - [  0.00411640024606,  0.00000000000000 ]
    - # atom 2
      - [ -0.19092142825647,  0.00000000000000 ]