# epsilon and Z* of atoms 1 4
   2.51231003  -0.00000000   0.00000000   0.00000000   2.51231003   0.00000000   0.00000000   0.00000000   2.54549329
   2.98579708  -0.00000000  -0.00000000  -0.00000000   3.62205225  -0.31310342   0.00000000   0.26995271   3.42867121
  -1.31464873  -0.49127490  -0.30663418  -0.43524618  -1.98967244  -0.67588523  -0.24116451  -0.71793204  -1.71452211
