14.400
   1.0268200   0.0000360   0.0000000   0.0000360   1.0389160   0.0000000   0.0000000   0.0000000   1.0155100
   0.0229300  -0.0805800   0.0000000   0.0422400   0.0122500   0.0000000   0.0000000  -0.0000000  -0.0830700
   0.0479700   0.1281900   0.0000000   0.1022700  -0.0655700   0.0000000  -0.0000000   0.0000000  -0.1185300
   0.0957200  -0.0004100   0.0000000  -0.0004200  -0.0432900   0.0000000   0.0000000  -0.0000000   0.0479300
   0.0231600   0.0805200   0.0000000  -0.0423000   0.0120400   0.0000000  -0.0000000   0.0000000  -0.0830600
   0.0466000  -0.1288400   0.0000000  -0.1029400  -0.0642300   0.0000000  -0.0000000  -0.0000000  -0.1185300
   0.0147500   0.0001600   0.0000000   0.0001800   0.0726800   0.0000000   0.0000000  -0.0000000  -0.1003500
   0.0260500   0.0011800   0.0000000   0.0011600   0.4183900   0.0000000  -0.0000000  -0.0000000   0.1164900
   0.0024600   0.0546500   0.0000000   0.0421200   0.0422400   0.0000000  -0.0000000   0.0000000   0.1328300
   0.0018800  -0.0544100   0.0000000  -0.0418900   0.0428000   0.0000000  -0.0000000  -0.0000000   0.1328300
  -0.0320100   0.0559700   0.0000000   0.0624800   0.0256700   0.0000000  -0.0000000  -0.0000000   0.1298300
  -0.0326900  -0.0556300   0.0000000  -0.0621300   0.0263500   0.0000000   0.0000000  -0.0000000   0.1298300
   0.0713800  -0.0004100   0.0000000  -0.0004200  -0.0699800   0.0000000   0.0000000   0.0000000   0.1291700
  -0.2863400  -0.0003700   0.0000000  -0.0003600  -0.4072600   0.0000000   0.0000000   0.0000000  -0.3134300
