13   
52   

1    
  0.0078984536559975   0.0000000000000000   0.0061330603978813
  -0.5175915600    0.0243309200   -0.0759692100
   0.0906890000   -0.0197415600    0.0355626100
   0.2025380200    0.0773606500    0.0352039900
   0.0423347700   -0.0141314100   -0.0055739000
   0.0095434000    0.0196114900    0.0037797700
  -0.0212836900   -0.0208638900   -0.0044334100
  -0.0040484700    0.0082471900   -0.0007324500
   0.2002614100   -0.0870001200    0.0219597300
  -0.0050398000    0.0001269400   -0.0035985000
  -0.0024832200    0.0000094100    0.0006915300
   0.0000427200    0.0201190100   -0.0017625800
   0.0033757600    0.0020816200   -0.0041937200
   0.0016616700   -0.0101502400   -0.0009338500

1    
 -0.0078984536559975   0.0000000000000000  -0.0061330603978813
   0.5142120900   -0.0378637200    0.0751465000
  -0.0892250800    0.0226570700   -0.0355000300
  -0.1952816400   -0.0725975600   -0.0365726500
  -0.0396724500    0.0127585600    0.0052954600
  -0.0109559500   -0.0185156900   -0.0037653200
   0.0209868400    0.0234347700    0.0042176800
   0.0041115000   -0.0195551400    0.0006943900
  -0.1924712800    0.0970752200   -0.0195023200
  -0.0091612900    0.0047903300    0.0036064500
  -0.0022662900   -0.0013026400   -0.0006781300
   0.0047157600   -0.0215902800    0.0019845200
  -0.0033246900    0.0067534700    0.0041409000
  -0.0016675200    0.0039556000    0.0009325500

1    
  0.0000000000000000   0.0100000000000000   0.0000000000000000
   0.0381474900   -0.6354037800    0.0000000000
   0.0276424000    0.3122866700    0.0000000000
   0.0562930500    0.1401537800    0.0000000000
   0.0173369100   -0.0512763600    0.0000000000
   0.0226410500    0.0410271400    0.0000000000
  -0.0646208100    0.0282312600    0.0000000000
   0.0296228400    0.0331230800    0.0000000000
  -0.1098608100    0.1228435200    0.0000000000
  -0.0109828400    0.0036337200    0.0000000000
  -0.0015253100   -0.0000080700    0.0000000000
   0.0000402800    0.0099742900    0.0000000000
  -0.0023545500    0.0038938100    0.0000000000
  -0.0023796900   -0.0084790600    0.0000000000

1    
  0.0000000000000000  -0.0100000000000000   0.0000000000000000
  -0.0405980200    0.6558580100    0.0000000000
  -0.0263063000   -0.3336937600    0.0000000000
  -0.0522798200   -0.1395154300    0.0000000000
  -0.0154843200    0.0501381200    0.0000000000
  -0.0243558700   -0.0402501300    0.0000000000
   0.0652743500   -0.0260770400    0.0000000000
  -0.0291211300   -0.0441855100    0.0000000000
   0.1199988500   -0.1179868200    0.0000000000
  -0.0032725200    0.0013056000    0.0000000000
  -0.0032405200   -0.0013054000    0.0000000000
   0.0046498000   -0.0116752800    0.0000000000
   0.0024147900    0.0049370600    0.0000000000
   0.0023207200    0.0024505900    0.0000000000

2    
  0.0078984536559975   0.0000000000000000   0.0061330603978813
   0.0888873000    0.0197336400    0.0355641000
  -0.5268323200   -0.0166440300   -0.0761301300
  -0.0193263300    0.0199996400   -0.0044810500
   0.0111196800   -0.0191194700    0.0037742000
   0.0410228600    0.0144045200   -0.0045317300
   0.2122991600   -0.0913567700    0.0352320100
   0.0037799700   -0.0016367200   -0.0045733700
   0.0040049200   -0.0179308500   -0.0021459000
  -0.0073849300    0.0018797000    0.0006602800
  -0.0000840400    0.0017453400   -0.0041211500
   0.1961345900    0.0857219500    0.0221565900
  -0.0028454100    0.0065636000   -0.0022349400
  -0.0007754500   -0.0033605400    0.0008310900

2    
 -0.0078984536559975   0.0000000000000000  -0.0061330603978813
  -0.0910275700   -0.0228811100   -0.0354987300
   0.5271403700    0.0301009500    0.0754494300
   0.0191643200   -0.0205012300    0.0042587600
  -0.0089395200    0.0177366200   -0.0037706900
  -0.0419019900   -0.0132631700    0.0042629300
  -0.2050159300    0.0884821700   -0.0367420400
  -0.0037961200   -0.0096406200    0.0045032400
   0.0101795700    0.0228406500    0.0023746000
  -0.0068761700    0.0030298600   -0.0006475200
  -0.0046023700   -0.0030480400    0.0041381700
  -0.1980596400   -0.0922922700   -0.0197197900
   0.0029446400    0.0022719400    0.0022065400
   0.0007904100   -0.0028357400   -0.0008149000

2    
  0.0000000000000000   0.0100000000000000   0.0000000000000000
  -0.0280729500    0.3336168600    0.0000000000
  -0.0291199200   -0.6494690100    0.0000000000
   0.0620085900    0.0301086000    0.0000000000
  -0.0230298500    0.0403613600    0.0000000000
  -0.0190048300   -0.0539593400    0.0000000000
  -0.0564064800    0.1653273900    0.0000000000
   0.0036264100   -0.0118207200    0.0000000000
   0.0096613100    0.0121933300    0.0000000000
  -0.0077524500    0.0031135100    0.0000000000
   0.0013707100    0.0001273700    0.0000000000
   0.1133765300    0.1160683000    0.0000000000
  -0.0258818900    0.0147961500    0.0000000000
  -0.0007751700   -0.0004638100    0.0000000000

2    
  0.0000000000000000  -0.0100000000000000   0.0000000000000000
   0.0256118400   -0.3123638900    0.0000000000
   0.0300406800    0.6283520100    0.0000000000
  -0.0612952800   -0.0299949100    0.0000000000
   0.0249124200   -0.0414728600    0.0000000000
   0.0172827400    0.0547521300    0.0000000000
   0.0605081100   -0.1637075000    0.0000000000
  -0.0036066500    0.0003262400    0.0000000000
   0.0044668300   -0.0070129400    0.0000000000
  -0.0065211400    0.0018104300    0.0000000000
  -0.0061036900   -0.0014446800    0.0000000000
  -0.1123698500   -0.1173125100    0.0000000000
   0.0262955600   -0.0063019800    0.0000000000
   0.0007784400   -0.0056295400    0.0000000000

3    
  0.0078984536559975   0.0000000000000000   0.0061330603978813
   0.1941847200    0.0398218700    0.0366107900
  -0.0184702400    0.0490937200   -0.0043460000
  -0.4710605500    0.0057015300   -0.0792019400
   0.2029083600   -0.0465362000    0.0351696300
  -0.0204188300   -0.0480452000   -0.0043945500
   0.0426169500    0.0012783400    0.0041534700
   0.0605520900   -0.0061886300    0.0323283300
   0.0203106700    0.0139026900   -0.0016718800
   0.0064571100   -0.0092607400   -0.0019437500
  -0.0038429000    0.0000926000   -0.0041820400
   0.0009064200   -0.0013939700   -0.0042472900
   0.0009739600    0.0044327000    0.0005683200
  -0.0151177700   -0.0028986900   -0.0088430900

3    
 -0.0078984536559975   0.0000000000000000  -0.0061330603978813
  -0.2036473400   -0.0459843500   -0.0351675300
   0.0200170200   -0.0482960300    0.0043953200
   0.4711879200    0.0058007100    0.0792018700
  -0.1935181800    0.0402942700   -0.0366085300
   0.0188799900    0.0488342100    0.0043467700
  -0.0427025400    0.0015377000   -0.0041535500
  -0.0605961300   -0.0070460300   -0.0323325600
  -0.0064839700   -0.0092170200    0.0019436000
  -0.0203290000    0.0140976900    0.0016716100
  -0.0008914100   -0.0014097300    0.0042472400
   0.0038741300    0.0000449700    0.0041819500
  -0.0009314300    0.0044417600   -0.0005688500
   0.0151409400   -0.0030981500    0.0088426600

3    
  0.0000000000000000   0.0100000000000000   0.0000000000000000
   0.0917746400    0.1386395900    0.0000000000
   0.0262769800    0.0303657100    0.0000000000
  -0.0001303400   -0.6263542700    0.0000000000
  -0.0923667100    0.1394515700    0.0000000000
  -0.0259523700    0.0308637600    0.0000000000
  -0.0002070400   -0.0011245200    0.0000000000
   0.0005625100    0.2679560300    0.0000000000
  -0.0067097600   -0.0066822000    0.0000000000
   0.0065333200   -0.0065996200    0.0000000000
  -0.0015385700    0.0041522600    0.0000000000
   0.0016013500    0.0041467200    0.0000000000
   0.0000156900    0.0037246600    0.0000000000
   0.0001403000    0.0214603100    0.0000000000

3    
  0.0000000000000000  -0.0100000000000000   0.0000000000000000
  -0.0980129000   -0.1410139700    0.0000000000
  -0.0249990200   -0.0297426200    0.0000000000
  -0.0000094900    0.6097925500    0.0000000000
   0.0987258700   -0.1419604200    0.0000000000
   0.0246791700   -0.0302655300    0.0000000000
   0.0001236500    0.0034994900    0.0000000000
  -0.0005380400   -0.2618144200    0.0000000000
   0.0210826100    0.0114731600    0.0000000000
  -0.0209531600    0.0115454600    0.0000000000
  -0.0031613800   -0.0054862000    0.0000000000
   0.0031452400   -0.0055121200    0.0000000000
   0.0000270400    0.0051675900    0.0000000000
  -0.0001096000   -0.0256829600    0.0000000000

4    
  0.0078984536559975   0.0000000000000000   0.0061330603978813
   0.0396783200    0.0123107200   -0.0052950900
   0.0107399400   -0.0183763200    0.0037655600
   0.1946564400   -0.0731087300    0.0365703400
  -0.5146676400   -0.0378645700   -0.0751476300
   0.0892460700    0.0236209100    0.0355057500
  -0.0206406200    0.0236838700   -0.0042170100
  -0.0043609300   -0.0193421600   -0.0006945900
   0.0091704300    0.0047047000   -0.0036060200
   0.1935676600    0.0965444500    0.0194980800
  -0.0048057600   -0.0215089900   -0.0019838600
   0.0022821900   -0.0013151500    0.0006781600
   0.0033914400    0.0067284600   -0.0041413800
   0.0017424600    0.0039228200   -0.0009323100

4    
 -0.0078984536559975   0.0000000000000000  -0.0061330603978813
  -0.0423122200   -0.0136157100    0.0055741400
  -0.0093160200    0.0194880200   -0.0037797100
  -0.2017741100    0.0778780100   -0.0352064400
   0.5178507700    0.0242645700    0.0759705100
  -0.0906811600   -0.0207174600   -0.0355572300
   0.0207651700   -0.0211107200    0.0044338200
   0.0042315800    0.0080316100    0.0007317700
   0.0049846500    0.0000588200    0.0035986300
  -0.2013054700   -0.0863241100   -0.0219636800
   0.0000914000    0.0200712600    0.0017627900
   0.0025138000   -0.0000101800   -0.0006917800
  -0.0033581000    0.0021066900    0.0041929200
  -0.0016902800   -0.0101207900    0.0009342800

4    
  0.0000000000000000   0.0100000000000000   0.0000000000000000
  -0.0179364200   -0.0512474900    0.0000000000
  -0.0224755800    0.0413102700    0.0000000000
  -0.0569742200    0.1410766600    0.0000000000
  -0.0378966300   -0.6349747000    0.0000000000
  -0.0264856800    0.3122673500    0.0000000000
   0.0648494600    0.0276839500    0.0000000000
  -0.0293992800    0.0334086500    0.0000000000
   0.0109516000    0.0035157600    0.0000000000
   0.1090212700    0.1215274400    0.0000000000
   0.0000645200    0.0101282800    0.0000000000
   0.0015527900   -0.0000148000    0.0000000000
   0.0023688600    0.0038610400    0.0000000000
   0.0023593000   -0.0085424000    0.0000000000

4    
  0.0000000000000000  -0.0100000000000000   0.0000000000000000
   0.0160969900    0.0501727600    0.0000000000
   0.0241934600   -0.0405237700    0.0000000000
   0.0529034500   -0.1403539000    0.0000000000
   0.0407426000    0.6553575000    0.0000000000
   0.0250081900   -0.3336969500    0.0000000000
  -0.0656715000   -0.0255293700    0.0000000000
   0.0288277500   -0.0444482100    0.0000000000
   0.0032567300    0.0012691900    0.0000000000
  -0.1193111100   -0.1165895300    0.0000000000
  -0.0047077500   -0.0118024900    0.0000000000
   0.0032574300   -0.0013317600    0.0000000000
  -0.0023442000    0.0049694400    0.0000000000
  -0.0022520300    0.0025070900    0.0000000000

5    
  0.0078984536559975   0.0000000000000000   0.0061330603978813
   0.0091743800    0.0178998000    0.0037709000
   0.0419070700   -0.0137475100   -0.0042631800
  -0.0195448000   -0.0202498300   -0.0042591400
   0.0910282800   -0.0219424700    0.0354935100
  -0.5267568400    0.0302229600   -0.0754511000
   0.2056784300    0.0880224200    0.0367446900
   0.0037223200   -0.0096939000   -0.0045027300
   0.0068599000    0.0029589700    0.0006476800
  -0.0100930900    0.0229822200   -0.0023750200
   0.1969852300   -0.0928912900    0.0197241300
   0.0045942700   -0.0030728000   -0.0041384300
  -0.0027937400    0.0023389800   -0.0022062000
  -0.0007614000   -0.0028275500    0.0008149000

5    
 -0.0078984536559975   0.0000000000000000  -0.0061330603978813
  -0.0113313000   -0.0192234000   -0.0037743000
  -0.0410158900    0.0149138600    0.0045314700
   0.0197514800    0.0197407600    0.0044803700
  -0.0888910700    0.0187288100   -0.0355695600
   0.5266725600   -0.0167758100    0.0761312300
  -0.2132321000   -0.0908807200   -0.0352292600
  -0.0037733800   -0.0015737700    0.0045737100
   0.0073569300    0.0017974000   -0.0006603200
  -0.0041366400   -0.0179161400    0.0021454400
  -0.1951112200    0.0863434500   -0.0221528900
   0.0001389300    0.0017397100    0.0041206900
   0.0027783100    0.0064963900    0.0022350600
   0.0007934000   -0.0033905400   -0.0008316200

5    
  0.0000000000000000   0.0100000000000000   0.0000000000000000
   0.0232127000    0.0401184600    0.0000000000
   0.0183839900   -0.0539547100    0.0000000000
  -0.0616653500    0.0306212300    0.0000000000
   0.0293810000    0.3335744200    0.0000000000
   0.0291039300   -0.6498246200    0.0000000000
   0.0557837000    0.1643610900    0.0000000000
  -0.0037244500   -0.0117772200    0.0000000000
   0.0077366200    0.0030285700    0.0000000000
  -0.0096061500    0.0121314300    0.0000000000
  -0.1140738400    0.1173798100    0.0000000000
  -0.0013588700    0.0001518600    0.0000000000
   0.0260069100    0.0146611800    0.0000000000
   0.0008198200   -0.0004715000    0.0000000000

5    
  0.0000000000000000  -0.0100000000000000   0.0000000000000000
  -0.0250670100   -0.0411639300    0.0000000000
  -0.0166509800    0.0547584000    0.0000000000
   0.0609944100   -0.0304984400    0.0000000000
  -0.0267501400   -0.3123948400    0.0000000000
  -0.0303831100    0.6286983400    0.0000000000
  -0.0599504200   -0.1626607800    0.0000000000
   0.0036351000    0.0002751300    0.0000000000
   0.0064929200    0.0017415900    0.0000000000
  -0.0045682400   -0.0068017300    0.0000000000
   0.1132199200   -0.1186601500    0.0000000000
   0.0061388900   -0.0015007900    0.0000000000
  -0.0263358400   -0.0061629300    0.0000000000
  -0.0007754900   -0.0056298600    0.0000000000

6    
  0.0078984536559975   0.0000000000000000   0.0061330603978813
  -0.0221771700   -0.0517967400   -0.0043006700
   0.2055644700   -0.0430178100    0.0367749200
   0.0426700600   -0.0004902500    0.0041535000
  -0.0196471800    0.0510138100   -0.0043532900
   0.2126068200    0.0489061900    0.0351981000
  -0.4868240600   -0.0055504500   -0.0771576600
   0.0018890000   -0.0056612400    0.0008545200
   0.0059170100    0.0033638100   -0.0043107000
  -0.0083162100    0.0015357000   -0.0042393900
   0.0114222400    0.0105555100   -0.0020700100
   0.0157811000   -0.0119072700   -0.0018136400
   0.0416873600    0.0061537200    0.0214195800
  -0.0005734500   -0.0031049700   -0.0001552600

6    
 -0.0078984536559975   0.0000000000000000  -0.0061330603978813
   0.0200990300    0.0507986400    0.0043524600
  -0.2117531400    0.0493865800   -0.0352007200
  -0.0426484400   -0.0002332700   -0.0041535000
   0.0217490200   -0.0520712500    0.0042998000
  -0.2063101800   -0.0425659000   -0.0367771900
   0.4866225800   -0.0052323400    0.0771566600
  -0.0019229900   -0.0056693400   -0.0008542500
   0.0082850400    0.0014281700    0.0042393400
  -0.0059311900    0.0034100100    0.0043106100
  -0.0157563500   -0.0117640200    0.0018138400
  -0.0114002700    0.0106693300    0.0020700900
  -0.0416300100    0.0049488600   -0.0214119600
   0.0005968800   -0.0031054700    0.0001548200

6    
  0.0000000000000000   0.0100000000000000   0.0000000000000000
  -0.0292376400    0.0267806700    0.0000000000
  -0.1151398400    0.1652027200    0.0000000000
  -0.0001553400   -0.0025032900    0.0000000000
   0.0295632200    0.0261955900    0.0000000000
   0.1145001000    0.1641514800    0.0000000000
  -0.0001517900   -0.6730686700    0.0000000000
  -0.0000184100   -0.0036541500    0.0000000000
   0.0077116800    0.0075994400    0.0000000000
  -0.0076949600    0.0076866500    0.0000000000
  -0.0171030300   -0.0109813300    0.0000000000
   0.0169650900   -0.0109998500    0.0000000000
   0.0007502800    0.3078105200    0.0000000000
   0.0000106400   -0.0042197800    0.0000000000

6    
  0.0000000000000000  -0.0100000000000000   0.0000000000000000
   0.0268604000   -0.0275254400    0.0000000000
   0.1124716800   -0.1638261500    0.0000000000
   0.0001749600    0.0021197500    0.0000000000
  -0.0271610900   -0.0270155300    0.0000000000
  -0.1119312200   -0.1628641900    0.0000000000
   0.0002464400    0.6941523500    0.0000000000
  -0.0000160200   -0.0076893400    0.0000000000
   0.0064562900   -0.0027760600    0.0000000000
  -0.0065186000   -0.0027102300    0.0000000000
   0.0123154600    0.0097177700    0.0000000000
  -0.0121301800    0.0097040900    0.0000000000
  -0.0007808000   -0.3192956700    0.0000000000
   0.0000126900   -0.0019913600    0.0000000000

7    
  0.0078984536559975   0.0000000000000000   0.0061330603978813
  -0.0050892500    0.0225351500   -0.0006492400
   0.0045680000    0.0033400600   -0.0045311700
   0.0605880400    0.0007044900    0.0323309300
  -0.0032780800   -0.0236896200   -0.0007761400
   0.0029719800   -0.0024296000   -0.0045452800
   0.0018636800    0.0013517400    0.0008541900
  -0.0874570800   -0.0051306300   -0.0473737300
   0.0069599900    0.0028795200    0.0022471400
  -0.0072533100    0.0019359400    0.0022386400
  -0.0025175000   -0.0017663600   -0.0003426900
   0.0022505800    0.0004442500   -0.0003570800
  -0.0000659300    0.0044356000    0.0008424900
   0.0264588800   -0.0046105400    0.0200619300

7    
 -0.0078984536559975   0.0000000000000000  -0.0061330603978813
   0.0030680300   -0.0238708400    0.0007767900
  -0.0030040500   -0.0023685700    0.0045451800
  -0.0605559500   -0.0001638600   -0.0323257700
   0.0053201000    0.0222907000    0.0006495900
  -0.0045274100    0.0033877200    0.0045312100
  -0.0019482300    0.0013574400   -0.0008543400
   0.0874679100    0.0009250500    0.0473936700
   0.0072345900    0.0018638100   -0.0022385900
  -0.0069868400    0.0029610600   -0.0022471000
  -0.0022217600    0.0004571800    0.0003569600
   0.0025353700   -0.0017851800    0.0003425000
   0.0001086000    0.0044336600   -0.0008430200
  -0.0264903600   -0.0094881700   -0.0200870800

7    
  0.0000000000000000   0.0100000000000000   0.0000000000000000
   0.0161430400    0.0376429700    0.0000000000
   0.0058592700   -0.0054567200    0.0000000000
   0.0005312600    0.2563944400    0.0000000000
  -0.0158739000    0.0378803800    0.0000000000
  -0.0059179200   -0.0054131300    0.0000000000
  -0.0000432400    0.0032941100    0.0000000000
  -0.0039509400   -1.4576115100    0.0000000000
   0.0057681600    0.0009540900    0.0000000000
  -0.0057979200    0.0010267000    0.0000000000
  -0.0023031200   -0.0002143500    0.0000000000
   0.0023302800   -0.0002382000    0.0000000000
   0.0000217500    0.0044333700    0.0000000000
   0.0032332700    1.1273078500    0.0000000000

7    
  0.0000000000000000  -0.0100000000000000   0.0000000000000000
  -0.0190512000   -0.0396869800    0.0000000000
  -0.0042839400    0.0066887600    0.0000000000
  -0.0005700600   -0.2733924800    0.0000000000
   0.0188020900   -0.0399958700    0.0000000000
   0.0043522200    0.0066298400    0.0000000000
  -0.0000412600   -0.0007395200    0.0000000000
   0.0037028700    1.3879639100    0.0000000000
   0.0085103800    0.0038406600    0.0000000000
  -0.0085255400    0.0039217300    0.0000000000
  -0.0024271300   -0.0010627600    0.0000000000
   0.0024472100   -0.0010706700    0.0000000000
   0.0000210900    0.0044429300    0.0000000000
  -0.0029367300   -1.0575395400    0.0000000000

8    
  0.0078984536559975   0.0000000000000000   0.0061330603978813
   0.1983089500   -0.0938119400    0.0197608600
  -0.0023898800    0.0025957400   -0.0022665100
   0.0135163900   -0.0113324500   -0.0018816300
   0.0031196400    0.0024048400   -0.0036260300
  -0.0010252800    0.0009889800    0.0006581500
  -0.0012257600    0.0018702100   -0.0043044300
  -0.0001590700   -0.0067255000    0.0022607800
  -0.2029986300    0.1017130600   -0.0130768800
  -0.0064741800    0.0018444800   -0.0002982300
  -0.0023639700   -0.0007092400    0.0006530900
   0.0018568100   -0.0008798500    0.0023962100
  -0.0000459500    0.0046324400   -0.0000111200
  -0.0001190600   -0.0025907600   -0.0002642700

8    
 -0.0078984536559975   0.0000000000000000  -0.0061330603978813
  -0.1944270800    0.0877972100   -0.0217115600
   0.0037830600   -0.0015080000    0.0022536900
  -0.0132794300    0.0106264800    0.0017328800
  -0.0010668800   -0.0036726300    0.0035795200
  -0.0005285700    0.0000065000   -0.0006499300
   0.0011430500    0.0008796100    0.0042462400
   0.0001151400   -0.0045605500   -0.0022253000
   0.2112477600   -0.0921915000    0.0152069100
  -0.0077789500    0.0030770900    0.0003021800
  -0.0023815500   -0.0005943000   -0.0006451300
   0.0029471000   -0.0004739100   -0.0023555900
   0.0000781900    0.0042368900    0.0000065400
   0.0001481800   -0.0036229000    0.0002595500

8    
  0.0000000000000000   0.0100000000000000   0.0000000000000000
  -0.1156521100    0.1197989400    0.0000000000
  -0.0248460000    0.0099640100    0.0000000000
   0.0145632000   -0.0093669000    0.0000000000
   0.0039364400    0.0004751500    0.0000000000
  -0.0000501300    0.0011290700    0.0000000000
   0.0012050200    0.0065222000    0.0000000000
   0.0006522300   -0.0070757600    0.0000000000
   0.1278660900   -0.1232258000    0.0000000000
  -0.0063607100    0.0019760900    0.0000000000
  -0.0024582300   -0.0007214300    0.0000000000
   0.0026320500   -0.0015499000    0.0000000000
  -0.0012634900    0.0049940200    0.0000000000
  -0.0002243600   -0.0029196900    0.0000000000

8    
  0.0000000000000000  -0.0100000000000000   0.0000000000000000
   0.1173140400   -0.1210393800    0.0000000000
   0.0267794200   -0.0092425700    0.0000000000
  -0.0147066300    0.0087879800    0.0000000000
  -0.0019486800   -0.0017701600    0.0000000000
  -0.0015198700   -0.0001576600    0.0000000000
  -0.0012458400   -0.0038554600    0.0000000000
  -0.0006326600   -0.0041847100    0.0000000000
  -0.1175579100    0.1283087000    0.0000000000
  -0.0079059200    0.0029495700    0.0000000000
  -0.0022889200   -0.0005830500    0.0000000000
   0.0021571300    0.0002113400    0.0000000000
   0.0013128200    0.0038623800    0.0000000000
   0.0002430300   -0.0032869800    0.0000000000

9    
  0.0078984536559975   0.0000000000000000   0.0061330603978813
   0.0010475800   -0.0036479900   -0.0035793300
   0.0005268000    0.0000185900    0.0006501100
   0.0132967700    0.0105038000   -0.0017328600
   0.1954619900    0.0871662900    0.0217148600
  -0.0036710700   -0.0014527600   -0.0022530600
  -0.0012361300    0.0009124300   -0.0042461700
  -0.0001458200   -0.0045670900    0.0022256000
   0.0077558500    0.0029943900   -0.0003019900
  -0.2123601800   -0.0914777800   -0.0152111300
  -0.0029240500   -0.0004585200    0.0023555200
   0.0024058600   -0.0006102200    0.0006450800
  -0.0000308900    0.0042408400   -0.0000070300
  -0.0001267000   -0.0036219900   -0.0002595900

9    
 -0.0078984536559975   0.0000000000000000  -0.0061330603978813
  -0.0030757600    0.0024406900    0.0036261600
   0.0010370800    0.0009928800   -0.0006580800
  -0.0134896400   -0.0112134300    0.0018813300
  -0.1994157900   -0.0932430200   -0.0197571600
   0.0022851400    0.0025282000    0.0022671400
   0.0011490400    0.0018423600    0.0043044600
   0.0001220000   -0.0067226800   -0.0022607200
   0.0064517800    0.0017731500    0.0002983200
   0.2041547400    0.1011466800    0.0130736100
  -0.0018339400   -0.0008625700   -0.0023964100
   0.0023871600   -0.0007245300   -0.0006532200
   0.0000837100    0.0046299000    0.0000105900
   0.0001444800   -0.0025876200    0.0002639800

9    
  0.0000000000000000   0.0100000000000000   0.0000000000000000
  -0.0039314100    0.0005514000    0.0000000000
   0.0000589600    0.0011417500    0.0000000000
  -0.0146968900   -0.0093609000    0.0000000000
   0.1149492800    0.1184494500    0.0000000000
   0.0249290600    0.0098189500    0.0000000000
  -0.0012504400    0.0065297400    0.0000000000
  -0.0006935900   -0.0070786600    0.0000000000
   0.0063292000    0.0019008600    0.0000000000
  -0.1271243300   -0.1217476800    0.0000000000
  -0.0026098200   -0.0015342700    0.0000000000
   0.0024805000   -0.0007380400    0.0000000000
   0.0013096700    0.0049881700    0.0000000000
   0.0002498100   -0.0029207600    0.0000000000

9    
  0.0000000000000000  -0.0100000000000000   0.0000000000000000
   0.0019652000   -0.0017756300    0.0000000000
   0.0015159100   -0.0001601600    0.0000000000
   0.0148782600    0.0087845800    0.0000000000
  -0.1164854300   -0.1196794600    0.0000000000
  -0.0268521500   -0.0091141200    0.0000000000
   0.0011215800   -0.0038682900    0.0000000000
   0.0006058700   -0.0041816900    0.0000000000
   0.0078908600    0.0028714900    0.0000000000
   0.1166758000    0.1269177200    0.0000000000
  -0.0021334700    0.0002290800    0.0000000000
   0.0023133900   -0.0005976000    0.0000000000
  -0.0012741300    0.0038682700    0.0000000000
  -0.0002217100   -0.0032941800    0.0000000000

10   
  0.0078984536559975   0.0000000000000000   0.0061330603978813
  -0.0011095800    0.0000731400    0.0006805000
   0.0030283700    0.0034542400   -0.0041039600
  -0.0014668100    0.0002980700   -0.0041858600
  -0.0013458300    0.0012020900   -0.0018676800
   0.1922528700   -0.0869045700    0.0219147500
   0.0134528100   -0.0102256000   -0.0018670400
  -0.0001601200   -0.0055922700   -0.0003448700
   0.0071159800    0.0023160700    0.0006452100
  -0.0076802700    0.0022800600    0.0023554600
  -0.2066318100    0.0928593100   -0.0154927000
   0.0031140000   -0.0012781600   -0.0000760400
  -0.0006540600    0.0045690800    0.0022194200
   0.0000844400   -0.0030514600    0.0001228100

10   
 -0.0078984536559975   0.0000000000000000  -0.0061330603978813
  -0.0008932100   -0.0012814500   -0.0006894300
  -0.0014889100   -0.0024491000    0.0041561700
   0.0014846000   -0.0009880200    0.0042439100
   0.0035482600   -0.0025682600    0.0018790900
  -0.1998493800    0.0926829200   -0.0199721800
  -0.0137267700    0.0130179400    0.0020159900
   0.0001360400   -0.0056989900    0.0003548600
   0.0070985600    0.0024494800   -0.0006529500
  -0.0065912700    0.0026571800   -0.0023963500
   0.2079657800   -0.0988956000    0.0133743000
   0.0016722000   -0.0000598100    0.0000697000
   0.0007066800    0.0042950800   -0.0022573400
  -0.0000626000   -0.0031613600   -0.0001257700

10   
  0.0000000000000000   0.0100000000000000   0.0000000000000000
  -0.0001617600    0.0000578900    0.0000000000
   0.0038372700    0.0013035500    0.0000000000
   0.0009356700    0.0045231600    0.0000000000
  -0.0254945900    0.0104788200    0.0000000000
  -0.1159288200    0.1184834300    0.0000000000
   0.0141598000   -0.0090565500    0.0000000000
  -0.0014302800   -0.0052229300    0.0000000000
   0.0070350900    0.0023139900    0.0000000000
  -0.0068724000    0.0015791300    0.0000000000
   0.1208362200   -0.1243420600    0.0000000000
   0.0031642600   -0.0010440000    0.0000000000
  -0.0003855800    0.0037086200    0.0000000000
   0.0003051200   -0.0027830600    0.0000000000

10   
  0.0000000000000000  -0.0100000000000000   0.0000000000000000
  -0.0018205000   -0.0012383800    0.0000000000
  -0.0022308900   -0.0002685000    0.0000000000
  -0.0009653000   -0.0051171300    0.0000000000
   0.0271501800   -0.0114519400    0.0000000000
   0.1109053700   -0.1175680900    0.0000000000
  -0.0140986700    0.0116414100    0.0000000000
   0.0013852500   -0.0060682800    0.0000000000
   0.0071794900    0.0024531100    0.0000000000
  -0.0073823700    0.0033430800    0.0000000000
  -0.1218630400    0.1228355000    0.0000000000
   0.0016367600   -0.0003034700    0.0000000000
   0.0003809500    0.0051647500    0.0000000000
  -0.0002772100   -0.0034220500    0.0000000000

11   
  0.0078984536559975   0.0000000000000000   0.0061330603978813
  -0.0034280000   -0.0024705000   -0.0018795200
   0.2009467800    0.0920750000    0.0199688000
  -0.0014722700   -0.0009523700   -0.0042439200
   0.0008980900   -0.0013093400    0.0006895300
   0.0014627200   -0.0024667000   -0.0041561200
   0.0136423100    0.0128864300   -0.0020157300
  -0.0001642000   -0.0056874900   -0.0003544900
   0.0065677200    0.0025787300    0.0023964900
  -0.0071212200    0.0025254600    0.0006530900
  -0.0016489700   -0.0000505000   -0.0000697200
  -0.2091031700   -0.0982584700   -0.0133709500
  -0.0006636900    0.0042965800    0.0022569000
   0.0000838700   -0.0031668200    0.0001256400

11   
 -0.0078984536559975   0.0000000000000000  -0.0061330603978813
   0.0012457300    0.0011722400    0.0018672600
  -0.1932529100   -0.0862920900   -0.0219177900
   0.0014956500    0.0002682700    0.0041858200
   0.0011282000    0.0000392100   -0.0006804800
  -0.0029920100    0.0034556900    0.0041039400
  -0.0135401100   -0.0100997800    0.0018671300
   0.0001199100   -0.0055968700    0.0003449800
   0.0076569100    0.0022045800   -0.0023553400
  -0.0071391600    0.0023935800   -0.0006451700
  -0.0030901600   -0.0012567400    0.0000757000
   0.2077317300    0.0921962200    0.0154969900
   0.0006955500    0.0045693600   -0.0022198900
  -0.0000593300   -0.0030536700   -0.0001231500

11   
  0.0000000000000000   0.0100000000000000   0.0000000000000000
   0.0255856400    0.0103634800    0.0000000000
   0.1151096700    0.1171332800    0.0000000000
  -0.0008750600    0.0045309500    0.0000000000
   0.0001803600    0.0000300900    0.0000000000
  -0.0038463200    0.0013408800    0.0000000000
  -0.0144048000   -0.0090508100    0.0000000000
   0.0013998300   -0.0052295900    0.0000000000
   0.0068487000    0.0015032800    0.0000000000
  -0.0070589500    0.0023901800    0.0000000000
  -0.0031481900   -0.0010266100    0.0000000000
  -0.1199394400   -0.1229120800    0.0000000000
   0.0004288800    0.0037073200    0.0000000000
  -0.0002803100   -0.0027803600    0.0000000000

11   
  0.0000000000000000  -0.0100000000000000   0.0000000000000000
  -0.0272241300   -0.0112825700    0.0000000000