mesh: [     1,     1,     1 ]
nqpoint: 1      
reciprocal_lattice:
- [   0.05176592,   0.00000000,   0.00000000 ] # a*
- [   0.00000000,   0.04656235,   0.00000000 ] # b*
- [   0.00000000,   0.00000000,   0.06666667 ] # c*
natom:   13     
lattice:
- [    19.3177300000000010,     0.0000000000000000,     0.0000000000000000 ] # a
- [     0.0000000000000000,    21.4765799999999984,     0.0000000000000000 ] # b
- [     0.0000000000000000,     0.0000000000000000,    15.0000000000000000 ] # c
atoms:
- symbol: C  # 1
  position: [  0.4368318176328906,  0.4972543984853676,  0.5000000000000000 ]
  mass: 12.010700
- symbol: C  # 2
  position: [  0.4370050787989054,  0.4323880604544323,  0.5000000000000000 ]
  mass: 12.010700
- symbol: C  # 3
  position: [  0.5000251480217336,  0.5298494541778002,  0.5000000000000000 ]
  mass: 12.010700
- symbol: C  # 4
  position: [  0.5630047914915642,  0.4969214997009096,  0.5000000000000000 ]
  mass: 12.010700
- symbol: C  # 5
  position: [  0.5624083245651156,  0.4320571716009918,  0.5000000000000000 ]
  mass: 12.010700
- symbol: C  # 6
  position: [  0.4996007455053711,  0.3997251064256894,  0.5000000000000000 ]
  mass: 12.010700
- symbol: C  # 7
  position: [  0.5002415743894655,  0.5963801265908338,  0.5000000000000000 ]
  mass: 12.010700
- symbol: H  # 8
  position: [  0.3882909811385876,  0.5230973381059009,  0.5000000000000000 ]
  mass: 1.007940
- symbol: H  # 9
  position: [  0.6117136534449398,  0.5225074093261965,  0.5000000000000000 ]
  mass: 1.007940
- symbol: H  # 10
  position: [  0.6112451802409261,  0.4066195070609427,  0.5000000000000000 ]
  mass: 1.007940
- symbol: H  # 11
  position: [  0.3880029660004190,  0.4072087752614402,  0.5000000000000000 ]
  mass: 1.007940
- symbol: H  # 12
  position: [  0.4994351198778247,  0.3489496843024611,  0.5000000000000000 ]
  mass: 1.007940
- symbol: N  # 13
  position: [  0.5004177538051081,  0.6507976904008460,  0.5000000000000000 ]
  mass: 14.006700
supercell_matrix:
- [    1,    0,    0 ]
- [    0,    1,    0 ]
- [    0,    0,    1 ]

phonon:
- q-position: [    0.0000000,    0.0000000,    0.0000000 ]
  weight: 1    
  band:
  - # 1
    frequency:    -0.0000011308
    eigenvector:
    - # atom 1
      - [ -0.00000000000048,  0.00000000000000 ]
      - [  0.32534200015036,  0.00000000000000 ]
      - [ -0.10307354527401,  0.00000000000000 ]
    - # atom 2
      - [  0.00000000000595,  0.00000000000000 ]
      - [  0.32534200015038,  0.00000000000000 ]
      - [ -0.10307354528056,  0.00000000000000 ]
    - # atom 3
      - [ -0.00000000000371,  0.00000000000000 ]
      - [  0.32534200015600,  0.00000000000000 ]
      - [ -0.10307354525874,  0.00000000000000 ]
    - # atom 4
      - [ -0.00000000000045,  0.00000000000000 ]
      - [  0.32534200016162,  0.00000000000000 ]
      - [ -0.10307354525016,  0.00000000000000 ]
    - # atom 5
      - [  0.00000000000598,  0.00000000000000 ]
      - [  0.32534200016156,  0.00000000000000 ]
      - [ -0.10307354525684,  0.00000000000000 ]
    - # atom 6
      - [  0.00000000000918,  0.00000000000000 ]
      - [  0.32534200015596,  0.00000000000000 ]
      - [ -0.10307354527201,  0.00000000000000 ]
    - # atom 7
      - [ -0.00000000001029,  0.00000000000000 ]
      - [  0.32534200015602,  0.00000000000000 ]
      - [ -0.10307354525196,  0.00000000000000 ]
    - # atom 8
      - [ -0.00000000000088,  0.00000000000000 ]
      - [  0.09424825387575,  0.00000000000000 ]
      - [ -0.02985935310878,  0.00000000000000 ]
    - # atom 9
      - [ -0.00000000000086,  0.00000000000000 ]
      - [  0.09424825388152,  0.00000000000000 ]
      - [ -0.02985935309655,  0.00000000000000 ]
    - # atom 10
      - [  0.00000000000246,  0.00000000000000 ]
      - [  0.09424825388151,  0.00000000000000 ]
      - [ -0.02985935309997,  0.00000000000000 ]
    - # atom 11
      - [  0.00000000000245,  0.00000000000000 ]
      - [  0.09424825387574,  0.00000000000000 ]
      - [ -0.02985935311220,  0.00000000000000 ]
    - # atom 12
      - [  0.00000000000412,  0.00000000000000 ]
      - [  0.09424825387862,  0.00000000000000 ]
      - [ -0.02985935310779,  0.00000000000000 ]
    - # atom 13
      - [ -0.00000000001689,  0.00000000000000 ]
      - [  0.35133699792961,  0.00000000000000 ]
      - [ -0.11130917599165,  0.00000000000000 ]
  - # 2
    frequency:     0.0000005468
    eigenvector:
    - # atom 1
      - [  0.00000000000014,  0.00000000000000 ]
      - [  0.10307354525959,  0.00000000000000 ]
      - [  0.32534200017063,  0.00000000000000 ]
    - # atom 2
      - [  0.00000000000216,  0.00000000000000 ]
      - [  0.10307354525960,  0.00000000000000 ]
      - [  0.32534200016650,  0.00000000000000 ]
    - # atom 3
      - [ -0.00000000000087,  0.00000000000000 ]
      - [  0.10307354526137,  0.00000000000000 ]
      - [  0.32534200015761,  0.00000000000000 ]
    - # atom 4
      - [  0.00000000000015,  0.00000000000000 ]
      - [  0.10307354526313,  0.00000000000000 ]
      - [  0.32534200014051,  0.00000000000000 ]
    - # atom 5
      - [  0.00000000000217,  0.00000000000000 ]
      - [  0.10307354526311,  0.00000000000000 ]
      - [  0.32534200013653,  0.00000000000000 ]
    - # atom 6
      - [  0.00000000000318,  0.00000000000000 ]
      - [  0.10307354526135,  0.00000000000000 ]
      - [  0.32534200014948,  0.00000000000000 ]
    - # atom 7
      - [ -0.00000000000294,  0.00000000000000 ]
      - [  0.10307354526137,  0.00000000000000 ]
      - [  0.32534200016173,  0.00000000000000 ]
    - # atom 8
      - [ -0.00000000000019,  0.00000000000000 ]
      - [  0.02985935310231,  0.00000000000000 ]
      - [  0.09424825388670,  0.00000000000000 ]
    - # atom 9
      - [ -0.00000000000019,  0.00000000000000 ]
      - [  0.02985935310412,  0.00000000000000 ]
      - [  0.09424825387125,  0.00000000000000 ]
    - # atom 10
      - [  0.00000000000086,  0.00000000000000 ]
      - [  0.02985935310412,  0.00000000000000 ]
      - [  0.09424825386915,  0.00000000000000 ]
    - # atom 11
      - [  0.00000000000085,  0.00000000000000 ]
      - [  0.02985935310231,  0.00000000000000 ]
      - [  0.09424825388461,  0.00000000000000 ]
    - # atom 12
      - [  0.00000000000138,  0.00000000000000 ]
      - [  0.02985935310321,  0.00000000000000 ]
      - [  0.09424825387583,  0.00000000000000 ]
    - # atom 13
      - [ -0.00000000000498,  0.00000000000000 ]
      - [  0.11130917600779,  0.00000000000000 ]
      - [  0.35133699793937,  0.00000000000000 ]
  - # 3
    frequency:     0.0000008866
    eigenvector:
    - # atom 1
      - [  0.34127931785902,  0.00000000000000 ]
      - [  0.00000000000025,  0.00000000000000 ]
      - [  0.00000000000058,  0.00000000000000 ]
    - # atom 2
      - [  0.34127931786003,  0.00000000000000 ]
      - [  0.00000000000025,  0.00000000000000 ]
      - [  0.00000000000216,  0.00000000000000 ]
    - # atom 3
      - [  0.34127931785852,  0.00000000000000 ]
      - [  0.00000000000113,  0.00000000000000 ]
      - [ -0.00000000000091,  0.00000000000000 ]
    - # atom 4
      - [  0.34127931785903,  0.00000000000000 ]
      - [  0.00000000000201,  0.00000000000000 ]
      - [ -0.00000000000080,  0.00000000000000 ]
    - # atom 5
      - [  0.34127931786003,  0.00000000000000 ]
      - [  0.00000000000200,  0.00000000000000 ]
      - [  0.00000000000080,  0.00000000000000 ]
    - # atom 6
      - [  0.34127931786053,  0.00000000000000 ]
      - [  0.00000000000112,  0.00000000000000 ]
      - [  0.00000000000227,  0.00000000000000 ]
    - # atom 7
      - [  0.34127931785749,  0.00000000000000 ]
      - [  0.00000000000113,  0.00000000000000 ]
      - [ -0.00000000000254,  0.00000000000000 ]
    - # atom 8
      - [  0.09886513200769,  0.00000000000000 ]
      - [ -0.00000000000012,  0.00000000000000 ]
      - [  0.00000000000014,  0.00000000000000 ]
    - # atom 9
      - [  0.09886513200769,  0.00000000000000 ]
      - [  0.00000000000078,  0.00000000000000 ]
      - [ -0.00000000000057,  0.00000000000000 ]
    - # atom 10
      - [  0.09886513200821,  0.00000000000000 ]
      - [  0.00000000000078,  0.00000000000000 ]
      - [  0.00000000000026,  0.00000000000000 ]
    - # atom 11
      - [  0.09886513200821,  0.00000000000000 ]
      - [ -0.00000000000013,  0.00000000000000 ]
      - [  0.00000000000096,  0.00000000000000 ]
    - # atom 12
      - [  0.09886513200847,  0.00000000000000 ]
      - [  0.00000000000032,  0.00000000000000 ]
      - [  0.00000000000102,  0.00000000000000 ]
    - # atom 13
      - [  0.36854771573827,  0.00000000000000 ]
      - [  0.00000000000123,  0.00000000000000 ]
      - [ -0.00000000000419,  0.00000000000000 ]
  - # 4
    frequency:     0.0923964767
    eigenvector:
    - # atom 1
      - [ -0.00000000000030,  0.00000000000000 ]
      - [  0.00000000000366,  0.00000000000000 ]
      - [  0.44493167666164,  0.00000000000000 ]
    - # atom 2
      - [  0.00000000000116,  0.00000000000000 ]
      - [  0.00000000000367,  0.00000000000000 ]
      - [  0.43500272103996,  0.00000000000000 ]
    - # atom 3
      - [ -0.00000000000104,  0.00000000000000 ]
      - [  0.00000000000495,  0.00000000000000 ]
      - [  0.00298335012956,  0.00000000000000 ]
    - # atom 4
      - [ -0.00000000000030,  0.00000000000000 ]
      - [  0.00000000000623,  0.00000000000000 ]
      - [ -0.44648121494408,  0.00000000000000 ]
    - # atom 5
      - [  0.00000000000117,  0.00000000000000 ]
      - [  0.00000000000622,  0.00000000000000 ]
      - [ -0.45149498715091,  0.00000000000000 ]
    - # atom 6
      - [  0.00000000000190,  0.00000000000000 ]
      - [  0.00000000000494,  0.00000000000000 ]
      - [ -0.01199770045618,  0.00000000000000 ]
    - # atom 7
      - [ -0.00000000000256,  0.00000000000000 ]
      - [  0.00000000000495,  0.00000000000000 ]
      - [  0.01056128601670,  0.00000000000000 ]
    - # atom 8
      - [ -0.00000000000026,  0.00000000000000 ]
      - [  0.00000000000078,  0.00000000000000 ]
      - [  0.22913354862782,  0.00000000000000 ]
    - # atom 9
      - [ -0.00000000000025,  0.00000000000000 ]
      - [  0.00000000000209,  0.00000000000000 ]
      - [ -0.22786387137957,  0.00000000000000 ]
    - # atom 10
      - [  0.00000000000051,  0.00000000000000 ]
      - [  0.00000000000209,  0.00000000000000 ]
      - [ -0.23188180181307,  0.00000000000000 ]
    - # atom 11
      - [  0.00000000000050,  0.00000000000000 ]
      - [  0.00000000000077,  0.00000000000000 ]
      - [  0.22539877601562,  0.00000000000000 ]
    - # atom 12
      - [  0.00000000000088,  0.00000000000000 ]
      - [  0.00000000000143,  0.00000000000000 ]
      - [ -0.00517297377164,  0.00000000000000 ]
    - # atom 13
      - [ -0.00000000000411,  0.00000000000000 ]
      - [  0.00000000000535,  0.00000000000000 ]
      - [  0.01806062645842,  0.00000000000000 ]
  - # 5
    frequency:     0.1597375378
    eigenvector:
    - # atom 1
      - [  0.00000000000000,  0.00000000000000 ]
      - [  0.00000000000713,  0.00000000000000 ]
      - [ -0.04160604095542,  0.00000000000000 ]
    - # atom 2
      - [ -0.00000000001931,  0.00000000000000 ]
      - [  0.00000000000708,  0.00000000000000 ]
      - [ -0.30788167768213,  0.00000000000000 ]
    - # atom 3
      - [  0.00000000000970,  0.00000000000000 ]
      - [ -0.00000000000979,  0.00000000000000 ]
      - [  0.10550125345002,  0.00000000000000 ]
    - # atom 4
      - [ -0.00000000000010,  0.00000000000000 ]
      - [ -0.00000000002666,  0.00000000000000 ]
      - [ -0.01675995282269,  0.00000000000000 ]
    - # atom 5
      - [ -0.00000000001941,  0.00000000000000 ]
      - [ -0.00000000002650,  0.00000000000000 ]
      - [ -0.28316880052762,  0.00000000000000 ]
    - # atom 6
      - [ -0.00000000002903,  0.00000000000000 ]
      - [ -0.00000000000968,  0.00000000000000 ]
      - [ -0.42896913378698,  0.00000000000000 ]
    - # atom 7
      - [  0.00000000002949,  0.00000000000000 ]
      - [ -0.00000000000985,  0.00000000000000 ]
      - [  0.37864068535866,  0.00000000000000 ]
    - # atom 8
      - [  0.00000000000223,  0.00000000000000 ]
      - [  0.00000000000583,  0.00000000000000 ]
      - [  0.01581670577041,  0.00000000000000 ]
    - # atom 9
      - [  0.00000000000218,  0.00000000000000 ]
      - [ -0.00000000001150,  0.00000000000000 ]
      - [  0.02855363020352,  0.00000000000000 ]
    - # atom 10
      - [ -0.00000000000782,  0.00000000000000 ]
      - [ -0.00000000001147,  0.00000000000000 ]
      - [ -0.10940194468386,  0.00000000000000 ]
    - # atom 11
      - [ -0.00000000000777,  0.00000000000000 ]
      - [  0.00000000000585,  0.00000000000000 ]
      - [ -0.12214534388740,  0.00000000000000 ]
    - # atom 12
      - [ -0.00000000001278,  0.00000000000000 ]
      - [ -0.00000000000279,  0.00000000000000 ]
      - [ -0.18454098243107,  0.00000000000000 ]
    - # atom 13
      - [  0.00000000004927,  0.00000000000000 ]
      - [ -0.00000000001069,  0.00000000000000 ]
      - [  0.64999186206644,  0.00000000000000 ]
  - # 6
    frequency:     0.1695717985
    eigenvector:
    - # atom 1
      - [  0.02515301265684,  0.00000000000000 ]
      - [ -0.20675148309811,  0.00000000000000 ]
      - [ -0.00000000000615,  0.00000000000000 ]
    - # atom 2
      - [  0.26141031228846,  0.00000000000000 ]
      - [ -0.20618876936408,  0.00000000000000 ]
      - [ -0.00000000002785,  0.00000000000000 ]
    - # atom 3
      - [ -0.09357247707625,  0.00000000000000 ]
      - [  0.00028181595195,  0.00000000000000 ]
      - [  0.00000000000862,  0.00000000000000 ]
    - # atom 4
      - [  0.02635838520270,  0.00000000000000 ]
      - [  0.20659666968680,  0.00000000000000 ]
      - [  0.00000000000144,  0.00000000000000 ]
    - # atom 5
      - [  0.26260475294130,  0.00000000000000 ]
      - [  0.20464433428051,  0.00000000000000 ]
      - [ -0.00000000002029,  0.00000000000000 ]
    - # atom 6
      - [  0.38037290577053,  0.00000000000000 ]
      - [ -0.00112327685867,  0.00000000000000 ]
      - [ -0.00000000003495,  0.00000000000000 ]
    - # atom 7
      - [ -0.33572620857138,  0.00000000000000 ]
      - [  0.00099368650571,  0.00000000000000 ]
      - [  0.00000000003090,  0.00000000000000 ]
    - # atom 8
      - [ -0.01997824295386,  0.00000000000000 ]
      - [ -0.10594357540276,  0.00000000000000 ]
      - [ -0.00000000000013,  0.00000000000000 ]
    - # atom 9
      - [ -0.01935400736698,  0.00000000000000 ]
      - [  0.10605030485176,  0.00000000000000 ]
      - [  0.00000000000376,  0.00000000000000 ]
    - # atom 10
      - [  0.10292361563667,  0.00000000000000 ]
      - [  0.10564637293479,  0.00000000000000 ]
      - [ -0.00000000000748,  0.00000000000000 ]
    - # atom 11
      - [  0.10230708215321,  0.00000000000000 ]
      - [ -0.10625377671617,  0.00000000000000 ]
      - [ -0.00000000001138,  0.00000000000000 ]
    - # atom 12
      - [  0.16370820302545,  0.00000000000000 ]
      - [ -0.00048207767706,  0.00000000000000 ]
      - [ -0.00000000001504,  0.00000000000000 ]
    - # atom 13
      - [ -0.57605709627050,  0.00000000000000 ]
      - [  0.00169618958571,  0.00000000000000 ]
      - [  0.00000000005304,  0.00000000000000 ]
  - # 7
    frequency:     4.1380735789
    eigenvector:
    - # atom 1
      - [  0.00000000000009,  0.00000000000000 ]
      - [  0.00000000000007,  0.00000000000000 ]
      - [  0.33360189967459,  0.00000000000000 ]
    - # atom 2
      - [ -0.00000000000001,  0.00000000000000 ]
      - [  0.00000000000007,  0.00000000000000 ]
      - [ -0.09304943590657,  0.00000000000000 ]
    - # atom 3
      - [  0.00000000000014,  0.00000000000000 ]
      - [ -0.00000000000001,  0.00000000000000 ]
      - [  0.42582656255025,  0.00000000000000 ]
    - # atom 4
      - [  0.00000000000009,  0.00000000000000 ]
      - [ -0.00000000000008,  0.00000000000000 ]
      - [  0.33368830920000,  0.00000000000000 ]
    - # atom 5
      - [ -0.00000000000001,  0.00000000000000 ]
      - [ -0.00000000000009,  0.00000000000000 ]
      - [ -0.09294195235420,  0.00000000000000 ]
    - # atom 6
      - [ -0.00000000000006,  0.00000000000000 ]
      - [ -0.00000000000000,  0.00000000000000 ]
      - [ -0.39210560049939,  0.00000000000000 ]
    - # atom 7
      - [  0.00000000000006,  0.00000000000000 ]
      - [ -0.00000000000001,  0.00000000000000 ]
      - [  0.11893802523629,  0.00000000000000 ]
    - # atom 8
      - [  0.00000000000004,  0.00000000000000 ]
      - [  0.00000000000004,  0.00000000000000 ]
      - [  0.13263186683864,  0.00000000000000 ]
    - # atom 9
      - [  0.00000000000004,  0.00000000000000 ]
      - [ -0.00000000000004,  0.00000000000000 ]
      - [  0.13267065269960,  0.00000000000000 ]
    - # atom 10
      - [ -0.00000000000001,  0.00000000000000 ]
      - [ -0.00000000000004,  0.00000000000000 ]
      - [ -0.07325584250066,  0.00000000000000 ]
    - # atom 11
      - [ -0.00000000000001,  0.00000000000000 ]
      - [  0.00000000000004,  0.00000000000000 ]
      - [ -0.07331015052929,  0.00000000000000 ]
    - # atom 12
      - [ -0.00000000000004,  0.00000000000000 ]
      - [ -0.00000000000000,  0.00000000000000 ]
      - [ -0.23898333997496,  0.00000000000000 ]
    - # atom 13
      - [ -0.00000000000028,  0.00000000000000 ]
      - [ -0.00000000000001,  0.00000000000000 ]
      - [ -0.55479511176453,  0.00000000000000 ]
  - # 8
    frequency:     4.7922899404
    eigenvector:
    - # atom 1
      - [ -0.22974213846282,  0.00000000000000 ]
      - [ -0.19658339760634,  0.00000000000000 ]
      - [  0.00000000000014,  0.00000000000000 ]
    - # atom 2
      - [  0.03585542316838,  0.00000000000000 ]
      - [ -0.20711894184224,  0.00000000000000 ]
      - [ -0.00000000000004,  0.00000000000000 ]
    - # atom 3
      - [ -0.34598764587589,  0.00000000000000 ]
      - [  0.00102223132907,  0.00000000000000 ]
      - [  0.00000000000017,  0.00000000000000 ]
    - # atom 4
      - [ -0.22859498534150,  0.00000000000000 ]
      - [  0.19791095994426,  0.00000000000000 ]
      - [  0.00000000000012,  0.00000000000000 ]
    - # atom 5
      - [  0.03705709960858,  0.00000000000000 ]
      - [  0.20688509634646,  0.00000000000000 ]
      - [ -0.00000000000005,  0.00000000000000 ]
    - # atom 6
      - [  0.15780040482584,  0.00000000000000 ]
      - [ -0.00048127535123,  0.00000000000000 ]
      - [ -0.00000000000017,  0.00000000000000 ]
    - # atom 7
      - [ -0.16655275943050,  0.00000000000000 ]
      - [  0.00050545144503,  0.00000000000000 ]
      - [  0.00000000000006,  0.00000000000000 ]
    - # atom 8
      - [ -0.09777169797331,  0.00000000000000 ]
      - [ -0.10960599671483,  0.00000000000000 ]
      - [  0.00000000000006,  0.00000000000000 ]
    - # atom 9
      - [ -0.09712411174454,  0.00000000000000 ]
      - [  0.11016159550362,  0.00000000000000 ]
      - [  0.00000000000005,  0.00000000000000 ]
    - # atom 10
      - [  0.04015409969979,  0.00000000000000 ]
      - [  0.11084629176889,  0.00000000000000 ]
      - [ -0.00000000000004,  0.00000000000000 ]
    - # atom 11
      - [  0.03950700604007,  0.00000000000000 ]
      - [ -0.11108624202304,  0.00000000000000 ]
      - [ -0.00000000000003,  0.00000000000000 ]
    - # atom 12
      - [  0.09940165666392,  0.00000000000000 ]
      - [ -0.00029702908929,  0.00000000000000 ]
      - [ -0.00000000000010,  0.00000000000000 ]
    - # atom 13
      - [  0.68964803134892,  0.00000000000000 ]
      - [ -0.00198677384768,  0.00000000000000 ]
      - [ -0.00000000000021,  0.00000000000000 ]
  - # 9
    frequency:    11.1584520775
    eigenvector:
    - # atom 1
      - [  0.00000000000000,  0.00000000000000 ]
      - [  0.00000000000001,  0.00000000000000 ]
      - [  0.24361079960205,  0.00000000000000 ]
    - # atom 2
      - [  0.00000000000000,  0.00000000000000 ]
      - [  0.00000000000001,  0.00000000000000 ]
      - [  0.19262114072386,  0.00000000000000 ]
    - # atom 3
      - [  0.00000000000000,  0.00000000000000 ]
      - [ -0.00000000000000,  0.00000000000000 ]
      - [ -0.30968515556970,  0.00000000000000 ]
    - # atom 4
      - [  0.00000000000001,  0.00000000000000 ]
      - [ -0.00000000000000,  0.00000000000000 ]
      - [  0.24346516057780,  0.00000000000000 ]
    - # atom 5
      - [  0.00000000000001,  0.00000000000000 ]
      - [ -0.00000000000000,  0.00000000000000 ]
      - [  0.19277976417165,  0.00000000000000 ]
    - # atom 6
      - [ -0.00000000000000,  0.00000000000000 ]
      - [  0.00000000000001,  0.00000000000000 ]
      - [ -0.38521845619790,  0.00000000000000 ]
    - # atom 7
      - [ -0.00000000000002,  0.00000000000000 ]
      - [ -0.00000000000001,  0.00000000000000 ]
      - [ -0.57802693004795,  0.00000000000000 ]
    - # atom 8
      - [  0.00000000000000,  0.00000000000000 ]
      - [  0.00000000000000,  0.00000000000000 ]
      - [  0.15411041310316,  0.00000000000000 ]
    - # atom 9
      - [  0.00000000000000,  0.00000000000000 ]
      - [  0.00000000000000,  0.00000000000000 ]
      - [  0.15400983141708,  0.00000000000000 ]
    - # atom 10
      - [  0.00000000000000,  0.00000000000000 ]
      - [ -0.00000000000000,  0.00000000000000 ]
      - [  0.12408514778900,  0.00000000000000 ]
    - # atom 11
      - [  0.00000000000000,  0.00000000000000 ]
      - [  0.00000000000000,  0.00000000000000 ]
      - [  0.12398114733929,  0.00000000000000 ]
    - # atom 12
      - [ -0.00000000000000,  0.00000000000000 ]
      - [  0.00000000000000,  0.00000000000000 ]
      - [ -0.25697486209390,  0.00000000000000 ]
    - # atom 13
      - [  0.00000000000001,  0.00000000000000 ]
      - [ -0.00000000000001,  0.00000000000000 ]
      - [  0.29055927104870,  0.00000000000000 ]
  - # 10
    frequency:    11.7356269586
    eigenvector:
    - # atom 1
      - [  0.00000000000000,  0.00000000000000 ]
      - [ -0.00000000000000,  0.00000000000000 ]
      - [ -0.41746014680983,  0.00000000000000 ]
    - # atom 2
      - [  0.00000000000000,  0.00000000000000 ]
      - [ -0.00000000000000,  0.00000000000000 ]
      - [  0.42317221357180,  0.00000000000000 ]
    - # atom 3
      - [ -0.00000000000000,  0.00000000000000 ]
      - [  0.00000000000000,  0.00000000000000 ]
      - [ -0.00004677888779,  0.00000000000000 ]
    - # atom 4
      - [ -0.00000000000000,  0.00000000000000 ]
      - [  0.00000000000000,  0.00000000000000 ]
      - [  0.41755747631960,  0.00000000000000 ]
    - # atom 5
      - [ -0.00000000000000,  0.00000000000000 ]
      - [  0.00000000000000,  0.00000000000000 ]
      - [ -0.42309904943109,  0.00000000000000 ]
    - # atom 6
      - [  0.00000000000000,  0.00000000000000 ]
      - [ -0.00000000000000,  0.00000000000000 ]
      - [ -0.00007698181610,  0.00000000000000 ]
    - # atom 7
      - [  0.00000000000001,  0.00000000000000 ]
      - [  0.00000000000000,  0.00000000000000 ]
      - [ -0.00010719529841,  0.00000000000000 ]
    - # atom 8
      - [  0.00000000000000,  0.00000000000000 ]
      - [ -0.00000000000000,  0.00000000000000 ]
      - [ -0.27402969243917,  0.00000000000000 ]
    - # atom 9
      - [ -0.00000000000000,  0.00000000000000 ]
      - [ -0.00000000000000,  0.00000000000000 ]
      - [  0.27407876476667,  0.00000000000000 ]
    - # atom 10
      - [  0.00000000000000,  0.00000000000000 ]
      - [  0.00000000000000,  0.00000000000000 ]
      - [ -0.26744685121682,  0.00000000000000 ]
    - # atom 11
      - [  0.00000000000000,  0.00000000000000 ]
      - [ -0.00000000000000,  0.00000000000000 ]
      - [  0.26748077916172,  0.00000000000000 ]
    - # atom 12
      - [  0.00000000000000,  0.00000000000000 ]
      - [ -0.00000000000000,  0.00000000000000 ]
      - [ -0.00005324730610,  0.00000000000000 ]
    - # atom 13
      - [ -0.00000000000000,  0.00000000000000 ]
      - [  0.00000000000000,  0.00000000000000 ]
      - [  0.00004800740443,  0.00000000000000 ]
  - # 11
    frequency:    13.5706374621
    eigenvector:
    - # atom 1
      - [ -0.16394792080352,  0.00000000000000 ]
      - [  0.14336996067785,  0.00000000000000 ]
      - [ -0.00000000000001,  0.00000000000000 ]
    - # atom 2
      - [ -0.14440708392162,  0.00000000000000 ]
      - [  0.21308740222881,  0.00000000000000 ]
      - [ -0.00000000000000,  0.00000000000000 ]
    - # atom 3
      - [ -0.00071598747132,  0.00000000000000 ]
      - [ -0.23497775751172,  0.00000000000000 ]
      - [  0.00000000000001,  0.00000000000000 ]
    - # atom 4
      - [  0.16473408123633,  0.00000000000000 ]
      - [  0.14242901491928,  0.00000000000000 ]
      - [ -0.00000000000000,  0.00000000000000 ]
    - # atom 5
      - [  0.14567667470606,  0.00000000000000 ]
      - [  0.21226930114296,  0.00000000000000 ]
      - [ -0.00000000000001,  0.00000000000000 ]
    - # atom 6
      - [  0.00130682353074,  0.00000000000000 ]
      - [  0.43841257449522,  0.00000000000000 ]
      - [  0.00000000000001,  0.00000000000000 ]
    - # atom 7
      - [ -0.00129788595116,  0.00000000000000 ]
      - [ -0.44866618917621,  0.00000000000000 ]
      - [  0.00000000000001,  0.00000000000000 ]
    - # atom 8
      - [ -0.00349049998469,  0.00000000000000 ]
      - [  0.11408172253874,  0.00000000000000 ]
      - [ -0.00000000000001,  0.00000000000000 ]
    - # atom 9
      - [  0.00414682098891,  0.00000000000000 ]
      - [  0.11406506565743,  0.00000000000000 ]
      - [ -0.00000000000000,  0.00000000000000 ]
    - # atom 10
      - [  0.00964397766710,  0.00000000000000 ]
      - [  0.00688910841812,  0.00000000000000 ]
      - [ -0.00000000000001,  0.00000000000000 ]
    - # atom 11
      - [ -0.00958982197187,  0.00000000000000 ]
      - [  0.00692121536607,  0.00000000000000 ]
      - [ -0.00000000000000,  0.00000000000000 ]
    - # atom 12
      - [  0.00038211728223,  0.00000000000000 ]
      - [  0.12711000182975,  0.00000000000000 ]
      - [  0.00000000000001,  0.00000000000000 ]
    - # atom 13
      - [ -0.00154200743165,  0.00000000000000 ]
      - [ -0.53045559683939,  0.00000000000000 ]
      - [ -0.00000000000000,  0.00000000000000 ]
  - # 12
    frequency:    16.4009863184
    eigenvector:
    - # atom 1
      - [  0.00000000000000,  0.00000000000000 ]
      - [  0.00000000000000,  0.00000000000000 ]
      - [  0.10735887796777,  0.00000000000000 ]
    - # atom 2
      - [  0.00000000000000,  0.00000000000000 ]
      - [  0.00000000000000,  0.00000000000000 ]
      - [ -0.19681421165665,  0.00000000000000 ]
    - # atom 3
      - [ -0.00000000000000,  0.00000000000000 ]
      - [  0.00000000000000,  0.00000000000000 ]
      - [  0.48706478969186,  0.00000000000000 ]
    - # atom 4
      - [ -0.00000000000000,  0.00000000000000 ]
      - [ -0.00000000000000,  0.00000000000000 ]
      - [  0.10735628089819,  0.00000000000000 ]
    - # atom 5
      - [  0.00000000000000,  0.00000000000000 ]
      - [ -0.00000000000000,  0.00000000000000 ]
      - [ -0.19680027914130,  0.00000000000000 ]
    - # atom 6
      - [  0.00000000000000,  0.00000000000000 ]
      - [ -0.00000000000000,  0.00000000000000 ]
      - [  0.27506809913457,  0.00000000000000 ]
    - # atom 7
      - [ -0.00000000000000,  0.00000000000000 ]
      - [  0.00000000000000,  0.00000000000000 ]
      - [ -0.59620063154877,  0.00000000000000 ]
    - # atom 8
      - [ -0.00000000000000,  0.00000000000000 ]
      - [ -0.00000000000000,  0.00000000000000 ]
      - [ -0.15178265285997,  0.00000000000000 ]
    - # atom 9
      - [ -0.00000000000000,  0.00000000000000 ]
      - [ -0.00000000000000,  0.00000000000000 ]
      - [ -0.15178150498411,  0.00000000000000 ]
    - # atom 10
      - [  0.00000000000000,  0.00000000000000 ]
      - [  0.00000000000000,  0.00000000000000 ]
      - [ -0.25939167410186,  0.00000000000000 ]
    - # atom 11
      - [  0.00000000000000,  0.00000000000000 ]
      - [  0.00000000000000,  0.00000000000000 ]
      - [ -0.25939226820014,  0.00000000000000 ]
    - # atom 12
      - [ -0.00000000000000,  0.00000000000000 ]
      - [ -0.00000000000000,  0.00000000000000 ]
      - [  0.06191435379000,  0.00000000000000 ]
    - # atom 13
      - [  0.00000000000000,  0.00000000000000 ]
      - [  0.00000000000000,  0.00000000000000 ]
      - [  0.21599856330495,  0.00000000000000 ]
  - # 13
    frequency:    16.4703166996
    eigenvector:
    - # atom 1
      - [  0.31165789696753,  0.00000000000000 ]
      - [ -0.04445318938570,  0.00000000000000 ]
      - [ -0.00000000000001,  0.00000000000000 ]
    - # atom 2
      - [ -0.09552504578949,  0.00000000000000 ]
      - [ -0.00243445622213,  0.00000000000000 ]
      - [ -0.00000000000000,  0.00000000000000 ]
    - # atom 3
      - [  0.22350499484542,  0.00000000000000 ]
      - [ -0.00067330079674,  0.00000000000000 ]
      - [  0.00000000000001,  0.00000000000000 ]
    - # atom 4
      - [  0.31194946002434,  0.00000000000000 ]
      - [  0.04261927742892,  0.00000000000000 ]
      - [ -0.00000000000000,  0.00000000000000 ]
    - # atom 5
      - [ -0.09548762299344,  0.00000000000000 ]
      - [  0.00301099139300,  0.00000000000000 ]
      - [ -0.00000000000001,  0.00000000000000 ]
    - # atom 6
      - [ -0.14395104213622,  0.00000000000000 ]
      - [  0.00045165867022,  0.00000000000000 ]
      - [  0.00000000000001,  0.00000000000000 ]
    - # atom 7
      - [ -0.78319454664219,  0.00000000000000 ]
      - [  0.00227613329199,  0.00000000000000 ]
      - [  0.00000000000001,  0.00000000000000 ]
    - # atom 8
      - [  0.12276446480081,  0.00000000000000 ]
      - [  0.04181486046872,  0.00000000000000 ]
      - [ -0.00000000000001,  0.00000000000000 ]
    - # atom 9
      - [  0.12252330580604,  0.00000000000000 ]
      - [ -0.04253090835726,  0.00000000000000 ]
      - [ -0.00000000000000,  0.00000000000000 ]
    - # atom 10
      - [ -0.06176685815512,  0.00000000000000 ]
      - [ -0.05972171687219,  0.00000000000000 ]
      - [ -0.00000000000001,  0.00000000000000 ]
    - # atom 11
      - [ -0.06141586858302,  0.00000000000000 ]
      - [  0.06007847249913,  0.00000000000000 ]
      - [ -0.00000000000000,  0.00000000000000 ]