phonopy:
  version: 1.12.2
  configuration:
    eigenvectors: ".true."
    fc_symmetry: "1"
    mesh_numbers: "1 1 1"
    dim: "1 1 1"

supercell_matrix:
- [   1,   0,   0 ]
- [   0,   1,   0 ]
- [   0,   0,   1 ]

space_group:
  type: "Pm"
  number: 6
  Hall_symbol: "P -2y"

primitive_cell:
  lattice:
  - [    19.317730000000001,     0.000000000000000,     0.000000000000000 ] # a
  - [     0.000000000000000,    21.476579999999998,     0.000000000000000 ] # b
  - [     0.000000000000000,     0.000000000000000,    15.000000000000000 ] # c
  points:
  - symbol: C  # 1
    coordinates: [  0.436831817632891,  0.497254398485368,  0.500000000000000 ]
    mass: 12.010700
  - symbol: C  # 2
    coordinates: [  0.437005078798905,  0.432388060454432,  0.500000000000000 ]
    mass: 12.010700
  - symbol: C  # 3
    coordinates: [  0.500025148021734,  0.529849454177800,  0.500000000000000 ]
    mass: 12.010700
  - symbol: C  # 4
    coordinates: [  0.563004791491564,  0.496921499700910,  0.500000000000000 ]
    mass: 12.010700
  - symbol: C  # 5
    coordinates: [  0.562408324565116,  0.432057171600992,  0.500000000000000 ]
    mass: 12.010700
  - symbol: C  # 6
    coordinates: [  0.499600745505371,  0.399725106425689,  0.500000000000000 ]
    mass: 12.010700
  - symbol: C  # 7
    coordinates: [  0.500241574389465,  0.596380126590834,  0.500000000000000 ]
    mass: 12.010700
  - symbol: H  # 8
    coordinates: [  0.388290981138588,  0.523097338105901,  0.500000000000000 ]
    mass: 1.007940
  - symbol: H  # 9
    coordinates: [  0.611713653444940,  0.522507409326197,  0.500000000000000 ]
    mass: 1.007940
  - symbol: H  # 10
    coordinates: [  0.611245180240926,  0.406619507060943,  0.500000000000000 ]
    mass: 1.007940
  - symbol: H  # 11
    coordinates: [  0.388002966000419,  0.407208775261440,  0.500000000000000 ]
    mass: 1.007940
  - symbol: H  # 12
    coordinates: [  0.499435119877825,  0.348949684302461,  0.500000000000000 ]
    mass: 1.007940
  - symbol: N  # 13
    coordinates: [  0.500417753805108,  0.650797690400846,  0.500000000000000 ]
    mass: 14.006700
  reciprocal_lattice: # without 2pi
  - [     0.051765916595790,     0.000000000000000,     0.000000000000000 ] # a*
  - [     0.000000000000000,     0.046562348381353,     0.000000000000000 ] # b*
  - [     0.000000000000000,     0.000000000000000,     0.066666666666667 ] # c*

unit_cell:
  lattice:
  - [    19.317730000000001,     0.000000000000000,     0.000000000000000 ] # a
  - [     0.000000000000000,    21.476579999999998,     0.000000000000000 ] # b
  - [     0.000000000000000,     0.000000000000000,    15.000000000000000 ] # c
  points:
  - symbol: C  # 1
    coordinates: [  0.436831817632891,  0.497254398485368,  0.500000000000000 ]
    mass: 12.010700
    reduced_to: 1
  - symbol: C  # 2
    coordinates: [  0.437005078798905,  0.432388060454432,  0.500000000000000 ]
    mass: 12.010700
    reduced_to: 2
  - symbol: C  # 3
    coordinates: [  0.500025148021734,  0.529849454177800,  0.500000000000000 ]
    mass: 12.010700
    reduced_to: 3
  - symbol: C  # 4
    coordinates: [  0.563004791491564,  0.496921499700910,  0.500000000000000 ]
    mass: 12.010700
    reduced_to: 4
  - symbol: C  # 5
    coordinates: [  0.562408324565116,  0.432057171600992,  0.500000000000000 ]
    mass: 12.010700
    reduced_to: 5
  - symbol: C  # 6
    coordinates: [  0.499600745505371,  0.399725106425689,  0.500000000000000 ]
    mass: 12.010700
    reduced_to: 6
  - symbol: C  # 7
    coordinates: [  0.500241574389465,  0.596380126590834,  0.500000000000000 ]
    mass: 12.010700
    reduced_to: 7
  - symbol: H  # 8
    coordinates: [  0.388290981138588,  0.523097338105901,  0.500000000000000 ]
    mass: 1.007940
    reduced_to: 8
  - symbol: H  # 9
    coordinates: [  0.611713653444940,  0.522507409326197,  0.500000000000000 ]
    mass: 1.007940
    reduced_to: 9
  - symbol: H  # 10
    coordinates: [  0.611245180240926,  0.406619507060943,  0.500000000000000 ]
    mass: 1.007940
    reduced_to: 10
  - symbol: H  # 11
    coordinates: [  0.388002966000419,  0.407208775261440,  0.500000000000000 ]
    mass: 1.007940
    reduced_to: 11
  - symbol: H  # 12
    coordinates: [  0.499435119877825,  0.348949684302461,  0.500000000000000 ]
    mass: 1.007940
    reduced_to: 12
  - symbol: N  # 13
    coordinates: [  0.500417753805108,  0.650797690400846,  0.500000000000000 ]
    mass: 14.006700
    reduced_to: 13

supercell:
  lattice:
  - [    19.317730000000001,     0.000000000000000,     0.000000000000000 ] # a
  - [     0.000000000000000,    21.476579999999998,     0.000000000000000 ] # b
  - [     0.000000000000000,     0.000000000000000,    15.000000000000000 ] # c
  points:
  - symbol: C  # 1
    coordinates: [  0.436831817632891,  0.497254398485368,  0.500000000000000 ]
    mass: 12.010700
    reduced_to: 1
  - symbol: C  # 2
    coordinates: [  0.437005078798905,  0.432388060454432,  0.500000000000000 ]
    mass: 12.010700
    reduced_to: 2
  - symbol: C  # 3
    coordinates: [  0.500025148021734,  0.529849454177800,  0.500000000000000 ]
    mass: 12.010700
    reduced_to: 3
  - symbol: C  # 4
    coordinates: [  0.563004791491564,  0.496921499700910,  0.500000000000000 ]
    mass: 12.010700
    reduced_to: 4
  - symbol: C  # 5
    coordinates: [  0.562408324565116,  0.432057171600992,  0.500000000000000 ]
    mass: 12.010700
    reduced_to: 5
  - symbol: C  # 6
    coordinates: [  0.499600745505371,  0.399725106425689,  0.500000000000000 ]
    mass: 12.010700
    reduced_to: 6
  - symbol: C  # 7
    coordinates: [  0.500241574389465,  0.596380126590834,  0.500000000000000 ]
    mass: 12.010700
    reduced_to: 7
  - symbol: H  # 8
    coordinates: [  0.388290981138588,  0.523097338105901,  0.500000000000000 ]
    mass: 1.007940
    reduced_to: 8
  - symbol: H  # 9
    coordinates: [  0.611713653444940,  0.522507409326197,  0.500000000000000 ]
    mass: 1.007940
    reduced_to: 9
  - symbol: H  # 10
    coordinates: [  0.611245180240926,  0.406619507060943,  0.500000000000000 ]
    mass: 1.007940
    reduced_to: 10
  - symbol: H  # 11
    coordinates: [  0.388002966000419,  0.407208775261440,  0.500000000000000 ]
    mass: 1.007940
    reduced_to: 11
  - symbol: H  # 12
    coordinates: [  0.499435119877825,  0.348949684302461,  0.500000000000000 ]
    mass: 1.007940
    reduced_to: 12
  - symbol: N  # 13
    coordinates: [  0.500417753805108,  0.650797690400846,  0.500000000000000 ]
    mass: 14.006700
    reduced_to: 13
