mesh: [     1,     1,     1 ]
nqpoint: 1      
reciprocal_lattice:
- [   0.05161791,   0.00000000,   0.00000000 ] # a*
- [   0.00000000,   0.04562625,   0.00000000 ] # b*
- [   0.00000000,   0.00000000,   0.06666667 ] # c*
natom:   15     
lattice:
- [    19.373120000000000,     0.000000000000000,     0.000000000000000 ] # a
- [     0.000000000000000,    21.917210000000001,     0.000000000000000 ] # b
- [     0.000000000000000,     0.000000000000000,    15.000000000000000 ] # c
points:
- symbol: C  # 1
  coordinates: [  0.436516745590189,  0.485368960995528,  0.500000000000000 ]
  mass: 12.010700
- symbol: C  # 2
  coordinates: [  0.438614189957812,  0.421844972439044,  0.500000000000000 ]
  mass: 12.010700
- symbol: C  # 3
  coordinates: [  0.498131729528372,  0.519049321155823,  0.500000000000000 ]
  mass: 12.010700
- symbol: C  # 4
  coordinates: [  0.561823756627044,  0.488524752752906,  0.500000000000000 ]
  mass: 12.010700
- symbol: C  # 5
  coordinates: [  0.563628781620507,  0.424919322517789,  0.500000000000000 ]
  mass: 12.010700
- symbol: C  # 6
  coordinates: [  0.502153552084521,  0.391540114324940,  0.500000000000000 ]
  mass: 12.010700
- symbol: C  # 7
  coordinates: [  0.493089486023486,  0.586705299785913,  0.500000000000000 ]
  mass: 12.010700
- symbol: H  # 8
  coordinates: [  0.546260937063007,  0.658697717523314,  0.500000000000000 ]
  mass: 1.007940
- symbol: H  # 9
  coordinates: [  0.387622955772043,  0.509969387373333,  0.500000000000000 ]
  mass: 1.007940
- symbol: H  # 10
  coordinates: [  0.390658250075183,  0.395797949331953,  0.500000000000000 ]
  mass: 1.007940
- symbol: H  # 11
  coordinates: [  0.609509734349207,  0.514810920852795,  0.500000000000000 ]
  mass: 1.007940
- symbol: H  # 12
  coordinates: [  0.503755643368520,  0.341788837545202,  0.500000000000000 ]
  mass: 1.007940
- symbol: H  # 13
  coordinates: [  0.613170786307370,  0.401304186925610,  0.500000000000000 ]
  mass: 1.007940
- symbol: O  # 14
  coordinates: [  0.439147100865209,  0.615723831615007,  0.500000000000000 ]
  mass: 15.999400
- symbol: O  # 15
  coordinates: [  0.556170063127755,  0.614888955305193,  0.500000000000000 ]
  mass: 15.999400
phonon:
- q-position: [    0.0000000,    0.0000000,    0.0000000 ]
  weight: 1    
  band:
  - # 1
    frequency:    -0.3814778239
    eigenvector:
    - # atom 1
      - [  0.00000000000561,  0.00000000000000 ]
      - [ -0.00000000000236,  0.00000000000000 ]
      - [ -0.34455628549519,  0.00000000000000 ]
    - # atom 2
      - [  0.00000000000733,  0.00000000000000 ]
      - [ -0.00000000000231,  0.00000000000000 ]
      - [ -0.29564900989522,  0.00000000000000 ]
    - # atom 3
      - [  0.00000000000470,  0.00000000000000 ]
      - [ -0.00000000000088,  0.00000000000000 ]
      - [ -0.01042607473036,  0.00000000000000 ]
    - # atom 4
      - [  0.00000000000552,  0.00000000000000 ]
      - [  0.00000000000064,  0.00000000000000 ]
      - [  0.37338106199847,  0.00000000000000 ]
    - # atom 5
      - [  0.00000000000724,  0.00000000000000 ]
      - [  0.00000000000068,  0.00000000000000 ]
      - [  0.41984870456246,  0.00000000000000 ]
    - # atom 6
      - [  0.00000000000815,  0.00000000000000 ]
      - [ -0.00000000000079,  0.00000000000000 ]
      - [  0.08601781351330,  0.00000000000000 ]
    - # atom 7
      - [  0.00000000000288,  0.00000000000000 ]
      - [ -0.00000000000100,  0.00000000000000 ]
      - [ -0.07993379096379,  0.00000000000000 ]
    - # atom 8
      - [  0.00000000000027,  0.00000000000000 ]
      - [  0.00000000000007,  0.00000000000000 ]
      - [  0.05436355037955,  0.00000000000000 ]
    - # atom 9
      - [  0.00000000000143,  0.00000000000000 ]
      - [ -0.00000000000102,  0.00000000000000 ]
      - [ -0.18534256389048,  0.00000000000000 ]
    - # atom 10
      - [  0.00000000000233,  0.00000000000000 ]
      - [ -0.00000000000100,  0.00000000000000 ]
      - [ -0.16098631357459,  0.00000000000000 ]
    - # atom 11
      - [  0.00000000000139,  0.00000000000000 ]
      - [  0.00000000000052,  0.00000000000000 ]
      - [  0.18340255318622,  0.00000000000000 ]
    - # atom 12
      - [  0.00000000000275,  0.00000000000000 ]
      - [ -0.00000000000022,  0.00000000000000 ]
      - [  0.03575199726760,  0.00000000000000 ]
    - # atom 13
      - [  0.00000000000228,  0.00000000000000 ]
      - [  0.00000000000054,  0.00000000000000 ]
      - [  0.20797115542381,  0.00000000000000 ]
    - # atom 14
      - [  0.00000000000242,  0.00000000000000 ]
      - [ -0.00000000000263,  0.00000000000000 ]
      - [ -0.47485498364272,  0.00000000000000 ]
    - # atom 15
      - [  0.00000000000245,  0.00000000000000 ]
      - [  0.00000000000057,  0.00000000000000 ]
      - [  0.31210781008801,  0.00000000000000 ]
  - # 2
    frequency:    -0.0628116636
    eigenvector:
    - # atom 1
      - [ -0.08262404381080,  0.00000000000000 ]
      - [  0.18013440084385,  0.00000000000000 ]
      - [  0.00000000001697,  0.00000000000000 ]
    - # atom 2
      - [ -0.28917154008975,  0.00000000000000 ]
      - [  0.17410756920240,  0.00000000000000 ]
      - [  0.00000000004298,  0.00000000000000 ]
    - # atom 3
      - [  0.02684107195710,  0.00000000000000 ]
      - [  0.00310139481384,  0.00000000000000 ]
      - [ -0.00000000000088,  0.00000000000000 ]
    - # atom 4
      - [ -0.07238840506222,  0.00000000000000 ]
      - [ -0.17998322833232,  0.00000000000000 ]
      - [  0.00000000000755,  0.00000000000000 ]
    - # atom 5
      - [ -0.27920322027360,  0.00000000000000 ]
      - [ -0.18518210038223,  0.00000000000000 ]
      - [  0.00000000003361,  0.00000000000000 ]
    - # atom 6
      - [ -0.38771823959477,  0.00000000000000 ]
      - [ -0.00851451280272,  0.00000000000000 ]
      - [  0.00000000005135,  0.00000000000000 ]
    - # atom 7
      - [  0.24648776425720,  0.00000000000000 ]
      - [  0.01760119069285,  0.00000000000000 ]
      - [ -0.00000000002832,  0.00000000000000 ]
    - # atom 8
      - [  0.13900105627954,  0.00000000000000 ]
      - [ -0.03909764024024,  0.00000000000000 ]
      - [ -0.00000000001764,  0.00000000000000 ]
    - # atom 9
      - [ -0.00075083053626,  0.00000000000000 ]
      - [  0.09290204494776,  0.00000000000000 ]
      - [  0.00000000000289,  0.00000000000000 ]
    - # atom 10
      - [ -0.10830383132182,  0.00000000000000 ]
      - [  0.09036733837884,  0.00000000000000 ]
      - [  0.00000000001646,  0.00000000000000 ]
    - # atom 11
      - [  0.00381243065889,  0.00000000000000 ]
      - [ -0.09188242800241,  0.00000000000000 ]
      - [ -0.00000000000184,  0.00000000000000 ]
    - # atom 12
      - [ -0.15915114390225,  0.00000000000000 ]
      - [ -0.00379751400910,  0.00000000000000 ]
      - [  0.00000000002078,  0.00000000000000 ]
    - # atom 13
      - [ -0.10313269725134,  0.00000000000000 ]
      - [ -0.09489589022303,  0.00000000000000 ]
      - [  0.00000000001163,  0.00000000000000 ]
    - # atom 14
      - [  0.39326866251859,  0.00000000000000 ]
      - [  0.19906701337408,  0.00000000000000 ]
      - [ -0.00000000004270,  0.00000000000000 ]
    - # atom 15
      - [  0.38996286491353,  0.00000000000000 ]
      - [ -0.18851559158439,  0.00000000000000 ]
      - [ -0.00000000005036,  0.00000000000000 ]
  - # 3
    frequency:    -0.0000012051
    eigenvector:
    - # atom 1
      - [ -0.31360890001867,  0.00000000000000 ]
      - [  0.00000000000922,  0.00000000000000 ]
      - [ -0.00000000001062,  0.00000000000000 ]
    - # atom 2
      - [ -0.31360890000688,  0.00000000000000 ]
      - [  0.00000000000957,  0.00000000000000 ]
      - [ -0.00000000001660,  0.00000000000000 ]
    - # atom 3
      - [ -0.31360890002492,  0.00000000000000 ]
      - [  0.00000000001933,  0.00000000000000 ]
      - [  0.00000000000004,  0.00000000000000 ]
    - # atom 4
      - [ -0.31360890001926,  0.00000000000000 ]
      - [  0.00000000002977,  0.00000000000000 ]
      - [  0.00000000000467,  0.00000000000000 ]
    - # atom 5
      - [ -0.31360890000745,  0.00000000000000 ]
      - [  0.00000000003007,  0.00000000000000 ]
      - [ -0.00000000000136,  0.00000000000000 ]
    - # atom 6
      - [ -0.31360890000126,  0.00000000000000 ]
      - [  0.00000000001999,  0.00000000000000 ]
      - [ -0.00000000001199,  0.00000000000000 ]
    - # atom 7
      - [ -0.31360890003744,  0.00000000000000 ]
      - [  0.00000000001850,  0.00000000000000 ]
      - [  0.00000000000603,  0.00000000000000 ]
    - # atom 8
      - [ -0.09084929463890,  0.00000000000000 ]
      - [  0.00000000000788,  0.00000000000000 ]
      - [  0.00000000000563,  0.00000000000000 ]
    - # atom 9
      - [ -0.09084929463094,  0.00000000000000 ]
      - [  0.00000000000035,  0.00000000000000 ]
      - [ -0.00000000000407,  0.00000000000000 ]
    - # atom 10
      - [ -0.09084929462480,  0.00000000000000 ]
      - [  0.00000000000049,  0.00000000000000 ]
      - [ -0.00000000000721,  0.00000000000000 ]
    - # atom 11
      - [ -0.09084929463120,  0.00000000000000 ]
      - [  0.00000000001089,  0.00000000000000 ]
      - [  0.00000000000376,  0.00000000000000 ]
    - # atom 12
      - [ -0.09084929462190,  0.00000000000000 ]
      - [  0.00000000000587,  0.00000000000000 ]
      - [ -0.00000000000484,  0.00000000000000 ]
    - # atom 13
      - [ -0.09084929462509,  0.00000000000000 ]
      - [  0.00000000001107,  0.00000000000000 ]
      - [  0.00000000000065,  0.00000000000000 ]
    - # atom 14
      - [ -0.36195623962413,  0.00000000000000 ]
      - [  0.00000000001116,  0.00000000000000 ]
      - [  0.00000000000272,  0.00000000000000 ]
    - # atom 15
      - [ -0.36195623962394,  0.00000000000000 ]
      - [  0.00000000003326,  0.00000000000000 ]
      - [  0.00000000001889,  0.00000000000000 ]
  - # 4
    frequency:    -0.0000006824
    eigenvector:
    - # atom 1
      - [  0.00000000000000,  0.00000000000000 ]
      - [  0.29466783389833,  0.00000000000000 ]
      - [  0.10733783052628,  0.00000000000000 ]
    - # atom 2
      - [ -0.00000000004526,  0.00000000000000 ]
      - [  0.29466783389701,  0.00000000000000 ]
      - [  0.10733783052240,  0.00000000000000 ]
    - # atom 3
      - [  0.00000000002399,  0.00000000000000 ]
      - [  0.29466783385954,  0.00000000000000 ]
      - [  0.10733783053010,  0.00000000000000 ]
    - # atom 4
      - [  0.00000000000224,  0.00000000000000 ]
      - [  0.29466783381942,  0.00000000000000 ]
      - [  0.10733783052999,  0.00000000000000 ]
    - # atom 5
      - [ -0.00000000004308,  0.00000000000000 ]
      - [  0.29466783381828,  0.00000000000000 ]
      - [  0.10733783052609,  0.00000000000000 ]
    - # atom 6
      - [ -0.00000000006686,  0.00000000000000 ]
      - [  0.29466783385699,  0.00000000000000 ]
      - [  0.10733783052229,  0.00000000000000 ]
    - # atom 7
      - [  0.00000000007211,  0.00000000000000 ]
      - [  0.29466783386271,  0.00000000000000 ]
      - [  0.10733783053413,  0.00000000000000 ]
    - # atom 8
      - [  0.00000000003570,  0.00000000000000 ]
      - [  0.08536226124907,  0.00000000000000 ]
      - [  0.03109467298620,  0.00000000000000 ]
    - # atom 9
      - [  0.00000000000508,  0.00000000000000 ]
      - [  0.08536226127799,  0.00000000000000 ]
      - [  0.03109467298224,  0.00000000000000 ]
    - # atom 10
      - [ -0.00000000001849,  0.00000000000000 ]
      - [  0.08536226127744,  0.00000000000000 ]
      - [  0.03109467298021,  0.00000000000000 ]
    - # atom 11
      - [  0.00000000000608,  0.00000000000000 ]
      - [  0.08536226123750,  0.00000000000000 ]
      - [  0.03109467298413,  0.00000000000000 ]
    - # atom 12
      - [ -0.00000000002963,  0.00000000000000 ]
      - [  0.08536226125680,  0.00000000000000 ]
      - [  0.03109467298015,  0.00000000000000 ]
    - # atom 13
      - [ -0.00000000001736,  0.00000000000000 ]
      - [  0.08536226123684,  0.00000000000000 ]
      - [  0.03109467298211,  0.00000000000000 ]
    - # atom 14
      - [  0.00000000010707,  0.00000000000000 ]
      - [  0.34009513467525,  0.00000000000000 ]
      - [  0.12388550677073,  0.00000000000000 ]
    - # atom 15
      - [  0.00000000010634,  0.00000000000000 ]
      - [  0.34009513459033,  0.00000000000000 ]
      - [  0.12388550677466,  0.00000000000000 ]
  - # 5
    frequency:     0.0000008115
    eigenvector:
    - # atom 1
      - [ -0.00000000000000,  0.00000000000000 ]
      - [  0.10733783054550,  0.00000000000000 ]
      - [ -0.29466783385437,  0.00000000000000 ]
    - # atom 2
      - [ -0.00000000001822,  0.00000000000000 ]
      - [  0.10733783054497,  0.00000000000000 ]
      - [ -0.29466783384633,  0.00000000000000 ]
    - # atom 3
      - [  0.00000000000966,  0.00000000000000 ]
      - [  0.10733783052988,  0.00000000000000 ]
      - [ -0.29466783385989,  0.00000000000000 ]
    - # atom 4
      - [  0.00000000000090,  0.00000000000000 ]
      - [  0.10733783051372,  0.00000000000000 ]
      - [ -0.29466783385728,  0.00000000000000 ]
    - # atom 5
      - [ -0.00000000001735,  0.00000000000000 ]
      - [  0.10733783051327,  0.00000000000000 ]
      - [ -0.29466783384922,  0.00000000000000 ]
    - # atom 6
      - [ -0.00000000002692,  0.00000000000000 ]
      - [  0.10733783052885,  0.00000000000000 ]
      - [ -0.29466783384374,  0.00000000000000 ]
    - # atom 7
      - [  0.00000000002904,  0.00000000000000 ]
      - [  0.10733783053116,  0.00000000000000 ]
      - [ -0.29466783386839,  0.00000000000000 ]
    - # atom 8
      - [  0.00000000001438,  0.00000000000000 ]
      - [  0.03109467297971,  0.00000000000000 ]
      - [ -0.08536226126330,  0.00000000000000 ]
    - # atom 9
      - [  0.00000000000205,  0.00000000000000 ]
      - [  0.03109467299135,  0.00000000000000 ]
      - [ -0.08536226125696,  0.00000000000000 ]
    - # atom 10
      - [ -0.00000000000744,  0.00000000000000 ]
      - [  0.03109467299113,  0.00000000000000 ]
      - [ -0.08536226125277,  0.00000000000000 ]
    - # atom 11
      - [  0.00000000000245,  0.00000000000000 ]
      - [  0.03109467297505,  0.00000000000000 ]
      - [ -0.08536226125842,  0.00000000000000 ]
    - # atom 12
      - [ -0.00000000001193,  0.00000000000000 ]
      - [  0.03109467298282,  0.00000000000000 ]
      - [ -0.08536226125143,  0.00000000000000 ]
    - # atom 13
      - [ -0.00000000000699,  0.00000000000000 ]
      - [  0.03109467297478,  0.00000000000000 ]
      - [ -0.08536226125426,  0.00000000000000 ]
    - # atom 14
      - [  0.00000000004311,  0.00000000000000 ]
      - [  0.12388550678285,  0.00000000000000 ]
      - [ -0.34009513464582,  0.00000000000000 ]
    - # atom 15
      - [  0.00000000004282,  0.00000000000000 ]
      - [  0.12388550674866,  0.00000000000000 ]
      - [ -0.34009513464803,  0.00000000000000 ]
  - # 6
    frequency:     0.1058056395
    eigenvector:
    - # atom 1
      - [  0.00000000000000,  0.00000000000000 ]
      - [  0.00000000001847,  0.00000000000000 ]
      - [ -0.15705759804953,  0.00000000000000 ]
    - # atom 2
      - [ -0.00000000002277,  0.00000000000000 ]
      - [  0.00000000001781,  0.00000000000000 ]
      - [ -0.38934693383197,  0.00000000000000 ]
    - # atom 3
      - [  0.00000000001207,  0.00000000000000 ]
      - [ -0.00000000000104,  0.00000000000000 ]
      - [  0.02964199324444,  0.00000000000000 ]
    - # atom 4
      - [  0.00000000000113,  0.00000000000000 ]
      - [ -0.00000000002122,  0.00000000000000 ]
      - [ -0.01823349761667,  0.00000000000000 ]
    - # atom 5
      - [ -0.00000000002167,  0.00000000000000 ]
      - [ -0.00000000002180,  0.00000000000000 ]
      - [ -0.25111811694371,  0.00000000000000 ]
    - # atom 6
      - [ -0.00000000003363,  0.00000000000000 ]
      - [ -0.00000000000232,  0.00000000000000 ]
      - [ -0.43689774857484,  0.00000000000000 ]
    - # atom 7
      - [  0.00000000003628,  0.00000000000000 ]
      - [  0.00000000000055,  0.00000000000000 ]
      - [  0.27332992156826,  0.00000000000000 ]
    - # atom 8
      - [  0.00000000001796,  0.00000000000000 ]
      - [ -0.00000000000471,  0.00000000000000 ]
      - [  0.17081371308217,  0.00000000000000 ]
    - # atom 9
      - [  0.00000000000256,  0.00000000000000 ]
      - [  0.00000000000984,  0.00000000000000 ]
      - [ -0.03349867668673,  0.00000000000000 ]
    - # atom 10
      - [ -0.00000000000930,  0.00000000000000 ]
      - [  0.00000000000956,  0.00000000000000 ]
      - [ -0.15474815179925,  0.00000000000000 ]
    - # atom 11
      - [  0.00000000000306,  0.00000000000000 ]
      - [ -0.00000000001053,  0.00000000000000 ]
      - [  0.03688440665013,  0.00000000000000 ]
    - # atom 12
      - [ -0.00000000001490,  0.00000000000000 ]
      - [ -0.00000000000082,  0.00000000000000 ]
      - [ -0.17931081612826,  0.00000000000000 ]
    - # atom 13
      - [ -0.00000000000873,  0.00000000000000 ]
      - [ -0.00000000001086,  0.00000000000000 ]
      - [ -0.08351173843240,  0.00000000000000 ]
    - # atom 14
      - [  0.00000000005387,  0.00000000000000 ]
      - [  0.00000000002035,  0.00000000000000 ]
      - [  0.37678691888077,  0.00000000000000 ]
    - # atom 15
      - [  0.00000000005350,  0.00000000000000 ]
      - [ -0.00000000002238,  0.00000000000000 ]
      - [  0.50712885254929,  0.00000000000000 ]
  - # 7
    frequency:     1.7330088727
    eigenvector:
    - # atom 1
      - [ -0.00000000000002,  0.00000000000000 ]
      - [  0.00000000000008,  0.00000000000000 ]
      - [ -0.23673360746894,  0.00000000000000 ]
    - # atom 2
      - [ -0.00000000000005,  0.00000000000000 ]
      - [  0.00000000000008,  0.00000000000000 ]
      - [ -0.26677969300881,  0.00000000000000 ]
    - # atom 3
      - [ -0.00000000000001,  0.00000000000000 ]
      - [  0.00000000000006,  0.00000000000000 ]
      - [  0.00307954849010,  0.00000000000000 ]
    - # atom 4
      - [ -0.00000000000002,  0.00000000000000 ]
      - [  0.00000000000003,  0.00000000000000 ]
      - [  0.24369839798739,  0.00000000000000 ]
    - # atom 5
      - [ -0.00000000000005,  0.00000000000000 ]
      - [  0.00000000000003,  0.00000000000000 ]
      - [  0.26684626889379,  0.00000000000000 ]
    - # atom 6
      - [ -0.00000000000006,  0.00000000000000 ]
      - [  0.00000000000005,  0.00000000000000 ]
      - [ -0.00256163989834,  0.00000000000000 ]
    - # atom 7
      - [  0.00000000000003,  0.00000000000000 ]
      - [  0.00000000000006,  0.00000000000000 ]
      - [  0.03964104909782,  0.00000000000000 ]
    - # atom 8
      - [  0.00000000000002,  0.00000000000000 ]
      - [  0.00000000000001,  0.00000000000000 ]
      - [ -0.11099865895619,  0.00000000000000 ]
    - # atom 9
      - [ -0.00000000000000,  0.00000000000000 ]
      - [  0.00000000000003,  0.00000000000000 ]
      - [ -0.11705589490652,  0.00000000000000 ]
    - # atom 10
      - [ -0.00000000000002,  0.00000000000000 ]
      - [  0.00000000000003,  0.00000000000000 ]
      - [ -0.14028762160652,  0.00000000000000 ]
    - # atom 11
      - [ -0.00000000000000,  0.00000000000000 ]
      - [  0.00000000000000,  0.00000000000000 ]
      - [  0.12566633157077,  0.00000000000000 ]
    - # atom 12
      - [ -0.00000000000002,  0.00000000000000 ]
      - [  0.00000000000002,  0.00000000000000 ]
      - [ -0.00140688478925,  0.00000000000000 ]
    - # atom 13
      - [ -0.00000000000002,  0.00000000000000 ]
      - [  0.00000000000000,  0.00000000000000 ]
      - [  0.14080176743264,  0.00000000000000 ]
    - # atom 14
      - [  0.00000000000005,  0.00000000000000 ]
      - [  0.00000000000010,  0.00000000000000 ]
      - [  0.56661207840313,  0.00000000000000 ]
    - # atom 15
      - [  0.00000000000005,  0.00000000000000 ]
      - [  0.00000000000003,  0.00000000000000 ]
      - [ -0.58157605072687,  0.00000000000000 ]
  - # 8
    frequency:     4.5108071241
    eigenvector:
    - # atom 1
      - [  0.00000000000000,  0.00000000000000 ]
      - [  0.00000000000000,  0.00000000000000 ]
      - [  0.37918673358414,  0.00000000000000 ]
    - # atom 2
      - [ -0.00000000000000,  0.00000000000000 ]
      - [  0.00000000000001,  0.00000000000000 ]
      - [ -0.07707941426765,  0.00000000000000 ]
    - # atom 3
      - [  0.00000000000000,  0.00000000000000 ]
      - [ -0.00000000000000,  0.00000000000000 ]
      - [  0.46336445125446,  0.00000000000000 ]
    - # atom 4
      - [  0.00000000000000,  0.00000000000000 ]
      - [  0.00000000000000,  0.00000000000000 ]
      - [  0.38380124026408,  0.00000000000000 ]
    - # atom 5
      - [  0.00000000000000,  0.00000000000000 ]
      - [ -0.00000000000000,  0.00000000000000 ]
      - [ -0.08203284677449,  0.00000000000000 ]
    - # atom 6
      - [ -0.00000000000000,  0.00000000000000 ]
      - [  0.00000000000001,  0.00000000000000 ]
      - [ -0.42075166975002,  0.00000000000000 ]
    - # atom 7
      - [ -0.00000000000000,  0.00000000000000 ]
      - [ -0.00000000000001,  0.00000000000000 ]
      - [  0.05761556566314,  0.00000000000000 ]
    - # atom 8
      - [  0.00000000000000,  0.00000000000000 ]
      - [ -0.00000000000000,  0.00000000000000 ]
      - [ -0.17960911933909,  0.00000000000000 ]
    - # atom 9
      - [ -0.00000000000000,  0.00000000000000 ]
      - [ -0.00000000000000,  0.00000000000000 ]
      - [  0.14213326389100,  0.00000000000000 ]
    - # atom 10
      - [  0.00000000000000,  0.00000000000000 ]
      - [  0.00000000000000,  0.00000000000000 ]
      - [ -0.07280433222356,  0.00000000000000 ]
    - # atom 11
      - [  0.00000000000000,  0.00000000000000 ]
      - [  0.00000000000000,  0.00000000000000 ]
      - [  0.15092335490335,  0.00000000000000 ]
    - # atom 12
      - [ -0.00000000000000,  0.00000000000000 ]
      - [  0.00000000000000,  0.00000000000000 ]
      - [ -0.26505535191747,  0.00000000000000 ]
    - # atom 13
      - [ -0.00000000000000,  0.00000000000000 ]
      - [ -0.00000000000000,  0.00000000000000 ]
      - [ -0.07528167363363,  0.00000000000000 ]
    - # atom 14
      - [ -0.00000000000001,  0.00000000000000 ]
      - [ -0.00000000000002,  0.00000000000000 ]
      - [ -0.29657605821482,  0.00000000000000 ]
    - # atom 15
      - [ -0.00000000000000,  0.00000000000000 ]
      - [ -0.00000000000001,  0.00000000000000 ]
      - [ -0.23825744632649,  0.00000000000000 ]
  - # 9
    frequency:     6.3684875882
    eigenvector:
    - # atom 1
      - [  0.20394764609282,  0.00000000000000 ]
      - [  0.18712557470156,  0.00000000000000 ]
      - [ -0.00000000000001,  0.00000000000000 ]
    - # atom 2
      - [ -0.08692131113428,  0.00000000000000 ]
      - [  0.19842412112499,  0.00000000000000 ]
      - [ -0.00000000000001,  0.00000000000000 ]
    - # atom 3
      - [  0.31765028256330,  0.00000000000000 ]
      - [ -0.00052943005223,  0.00000000000000 ]
      - [ -0.00000000000001,  0.00000000000000 ]
    - # atom 4
      - [  0.21574517937351,  0.00000000000000 ]
      - [ -0.19037410434741,  0.00000000000000 ]
      - [  0.00000000000000,  0.00000000000000 ]
    - # atom 5
      - [ -0.07313851871401,  0.00000000000000 ]
      - [ -0.21822976395165,  0.00000000000000 ]
      - [  0.00000000000001,  0.00000000000000 ]
    - # atom 6
      - [ -0.20658614218384,  0.00000000000000 ]
      - [ -0.01294494204218,  0.00000000000000 ]
      - [ -0.00000000000000,  0.00000000000000 ]
    - # atom 7
      - [  0.08180529991800,  0.00000000000000 ]
      - [ -0.01458454308857,  0.00000000000000 ]
      - [ -0.00000000000000,  0.00000000000000 ]
    - # atom 8
      - [ -0.14454803230672,  0.00000000000000 ]
      - [  0.09736177486816,  0.00000000000000 ]
      - [  0.00000000000000,  0.00000000000000 ]
    - # atom 9
      - [  0.09280837275824,  0.00000000000000 ]
      - [  0.11168559301983,  0.00000000000000 ]
      - [ -0.00000000000001,  0.00000000000000 ]
    - # atom 10
      - [ -0.05813350086558,  0.00000000000000 ]
      - [  0.11130742964552,  0.00000000000000 ]
      - [ -0.00000000000001,  0.00000000000000 ]
    - # atom 11
      - [  0.09494547153335,  0.00000000000000 ]
      - [ -0.10372711418891,  0.00000000000000 ]
      - [  0.00000000000000,  0.00000000000000 ]
    - # atom 12
      - [ -0.11291965194145,  0.00000000000000 ]
      - [ -0.00528263025295,  0.00000000000000 ]
      - [  0.00000000000000,  0.00000000000000 ]
    - # atom 13
      - [ -0.05131225979543,  0.00000000000000 ]
      - [ -0.11934716805217,  0.00000000000000 ]
      - [  0.00000000000001,  0.00000000000000 ]
    - # atom 14
      - [ -0.17226175184831,  0.00000000000000 ]
      - [ -0.44378391332671,  0.00000000000000 ]
      - [  0.00000000000000,  0.00000000000000 ]
    - # atom 15
      - [ -0.17483067010067,  0.00000000000000 ]
      - [  0.46497867499592,  0.00000000000000 ]
      - [  0.00000000000000,  0.00000000000000 ]
  - # 10
    frequency:    11.2114734223
    eigenvector:
    - # atom 1
      - [ -0.05846305237222,  0.00000000000000 ]
      - [  0.21748456239586,  0.00000000000000 ]
      - [  0.00000000000000,  0.00000000000000 ]
    - # atom 2
      - [ -0.07691843176456,  0.00000000000000 ]
      - [  0.27227918256432,  0.00000000000000 ]
      - [ -0.00000000000001,  0.00000000000000 ]
    - # atom 3
      - [  0.03488752909808,  0.00000000000000 ]
      - [ -0.02566583012643,  0.00000000000000 ]
      - [ -0.00000000000002,  0.00000000000000 ]
    - # atom 4
      - [  0.11164836303230,  0.00000000000000 ]
      - [  0.19543659912649,  0.00000000000000 ]
      - [ -0.00000000000002,  0.00000000000000 ]
    - # atom 5
      - [  0.07049380362140,  0.00000000000000 ]
      - [  0.24267441505807,  0.00000000000000 ]
      - [  0.00000000000002,  0.00000000000000 ]
    - # atom 6
      - [ -0.01733824484542,  0.00000000000000 ]
      - [  0.37668933835817,  0.00000000000000 ]
      - [  0.00000000000000,  0.00000000000000 ]
    - # atom 7
      - [ -0.01965337606940,  0.00000000000000 ]
      - [ -0.24017460439988,  0.00000000000000 ]
      - [ -0.00000000000001,  0.00000000000000 ]
    - # atom 8
      - [  0.09814570059794,  0.00000000000000 ]
      - [ -0.11099329196962,  0.00000000000000 ]
      - [  0.00000000000001,  0.00000000000000 ]
    - # atom 9
      - [  0.01322645615323,  0.00000000000000 ]
      - [  0.11310669765180,  0.00000000000000 ]
      - [  0.00000000000001,  0.00000000000000 ]
    - # atom 10
      - [ -0.00773058209030,  0.00000000000000 ]
      - [  0.05627324069557,  0.00000000000000 ]
      - [ -0.00000000000000,  0.00000000000000 ]
    - # atom 11
      - [  0.01085881608982,  0.00000000000000 ]
      - [  0.08718645936981,  0.00000000000000 ]
      - [ -0.00000000000001,  0.00000000000000 ]
    - # atom 12
      - [ -0.00941553981514,  0.00000000000000 ]
      - [  0.10906947197851,  0.00000000000000 ]
      - [  0.00000000000000,  0.00000000000000 ]
    - # atom 13
      - [  0.00166206686160,  0.00000000000000 ]
      - [  0.03653020346509,  0.00000000000000 ]
      - [  0.00000000000001,  0.00000000000000 ]
    - # atom 14
      - [ -0.12577602114387,  0.00000000000000 ]
      - [ -0.47071587859166,  0.00000000000000 ]
      - [  0.00000000000001,  0.00000000000000 ]
    - # atom 15
      - [  0.06029134680792,  0.00000000000000 ]
      - [ -0.50234602399875,  0.00000000000000 ]
      - [  0.00000000000001,  0.00000000000000 ]
  - # 11
    frequency:    11.8686047504
    eigenvector:
    - # atom 1
      - [  0.00000000000000,  0.00000000000000 ]
      - [  0.00000000000001,  0.00000000000000 ]
      - [ -0.41355399624889,  0.00000000000000 ]
    - # atom 2
      - [ -0.00000000000000,  0.00000000000000 ]
      - [  0.00000000000001,  0.00000000000000 ]
      - [  0.42927103061440,  0.00000000000000 ]
    - # atom 3
      - [  0.00000000000000,  0.00000000000000 ]
      - [  0.00000000000000,  0.00000000000000 ]
      - [ -0.03488687479489,  0.00000000000000 ]
    - # atom 4
      - [  0.00000000000000,  0.00000000000000 ]
      - [  0.00000000000000,  0.00000000000000 ]
      - [  0.43144616997271,  0.00000000000000 ]
    - # atom 5
      - [  0.00000000000000,  0.00000000000000 ]
      - [  0.00000000000001,  0.00000000000000 ]
      - [ -0.39782573329950,  0.00000000000000 ]
    - # atom 6
      - [ -0.00000000000000,  0.00000000000000 ]
      - [  0.00000000000001,  0.00000000000000 ]
      - [ -0.02393983430234,  0.00000000000000 ]
    - # atom 7
      - [  0.00000000000000,  0.00000000000000 ]
      - [ -0.00000000000000,  0.00000000000000 ]
      - [ -0.01754266697820,  0.00000000000000 ]
    - # atom 8
      - [  0.00000000000000,  0.00000000000000 ]
      - [ -0.00000000000000,  0.00000000000000 ]
      - [  0.05309231792732,  0.00000000000000 ]
    - # atom 9
      - [  0.00000000000000,  0.00000000000000 ]
      - [  0.00000000000000,  0.00000000000000 ]
      - [ -0.26474775632687,  0.00000000000000 ]
    - # atom 10
      - [ -0.00000000000000,  0.00000000000000 ]
      - [  0.00000000000000,  0.00000000000000 ]
      - [  0.27443790529311,  0.00000000000000 ]
    - # atom 11
      - [  0.00000000000000,  0.00000000000000 ]
      - [  0.00000000000000,  0.00000000000000 ]
      - [  0.29654778129182,  0.00000000000000 ]
    - # atom 12
      - [ -0.00000000000000,  0.00000000000000 ]
      - [  0.00000000000000,  0.00000000000000 ]
      - [ -0.01407979764980,  0.00000000000000 ]
    - # atom 13
      - [ -0.00000000000000,  0.00000000000000 ]
      - [  0.00000000000000,  0.00000000000000 ]
      - [ -0.24604320330338,  0.00000000000000 ]
    - # atom 14
      - [ -0.00000000000000,  0.00000000000000 ]
      - [ -0.00000000000001,  0.00000000000000 ]
      - [  0.02462659785348,  0.00000000000000 ]
    - # atom 15
      - [  0.00000000000000,  0.00000000000000 ]
      - [ -0.00000000000001,  0.00000000000000 ]
      - [ -0.02610595466694,  0.00000000000000 ]
  - # 12
    frequency:    12.5144306871
    eigenvector:
    - # atom 1
      - [  0.00000000000000,  0.00000000000000 ]
      - [ -0.00000000000001,  0.00000000000000 ]
      - [  0.20212933559090,  0.00000000000000 ]
    - # atom 2
      - [  0.00000000000000,  0.00000000000000 ]