14.400
   1.0252550   0.0018270   0.0000000   0.0018270   1.0307310   0.0000000   0.0000000   0.0000000   1.0150010
  -0.0169000  -0.0279600   0.0000000  -0.2728500  -0.2912900   0.0000000  -0.0000000   0.0000000  -0.1529200
   0.1352800  -0.0463200   0.0000000  -0.0108300   0.1594100   0.0000000   0.0000000   0.0000000  -0.1311400
   0.0673100   0.2134100   0.0000000  -0.0809800   1.5696700   0.0000000   0.0000000  -0.0000000   0.0698000
  -0.0392000  -0.0943500   0.0000000   0.2846400  -0.3289100   0.0000000   0.0000000   0.0000000  -0.1590300
   0.1381500   0.0902100   0.0000000  -0.0151800   0.1684600   0.0000000  -0.0000000   0.0000000  -0.1347300
  -0.2013000  -0.0308700   0.0000000   0.0083800  -0.0589800   0.0000000  -0.0000000   0.0000000  -0.1564900
   0.5602300   0.1870400   0.0000000   0.5257300   0.5587000   0.0000000  -0.0000000   0.0000000   0.3108700
  -0.0130700   0.0668900   0.0000000   0.0604300   0.0298100   0.0000000   0.0000000  -0.0000000   0.1398100
  -0.0636900  -0.0738400   0.0000000  -0.0745900   0.0230300   0.0000000   0.0000000   0.0000000   0.1263700
  -0.0293300  -0.0629700   0.0000000  -0.0819000   0.0425200   0.0000000  -0.0000000  -0.0000000   0.1371500
   0.0604700  -0.0022400   0.0000000  -0.0020900  -0.1046800   0.0000000  -0.0000000  -0.0000000   0.1401600
  -0.0593300   0.0667500   0.0000000   0.0791600   0.0117600   0.0000000   0.0000000   0.0000000   0.1260100
   0.0506500  -0.0063200   0.0000000   0.0555000  -0.1266700   0.0000000  -0.0000000   0.0000000   0.0884600
  -0.0489500   0.0399900   0.1008500  -0.1132900   0.0349300   0.0110100   0.0620300  -0.0672200  -0.0854600
  -0.4893500  -0.3594000   0.0000000  -0.2487700  -1.7208500   0.0000000   0.0000000  -0.0000000  -0.2307200
