natom:   16
displacements:
- atom:    1
  direction:
    [   1.0000000000000000,  0.0000000000000000,  1.0000000000000000 ]
  displacement:
    [   0.0075531961372871,  0.0000000000000000,  0.0065535660606781 ]
- atom:    1
  direction:
    [  -1.0000000000000000,  0.0000000000000000, -1.0000000000000000 ]
  displacement:
    [  -0.0075531961372871,  0.0000000000000000, -0.0065535660606781 ]
- atom:    1
  direction:
    [   0.0000000000000000,  1.0000000000000000,  0.0000000000000000 ]
  displacement:
    [   0.0000000000000000,  0.0100000000000000,  0.0000000000000000 ]
- atom:    1
  direction:
    [   0.0000000000000000, -1.0000000000000000,  0.0000000000000000 ]
  displacement:
    [   0.0000000000000000, -0.0100000000000000,  0.0000000000000000 ]
- atom:    2
  direction:
    [   1.0000000000000000,  0.0000000000000000,  1.0000000000000000 ]
  displacement:
    [   0.0075531961372871,  0.0000000000000000,  0.0065535660606781 ]
- atom:    2
  direction:
    [  -1.0000000000000000,  0.0000000000000000, -1.0000000000000000 ]
  displacement:
    [  -0.0075531961372871,  0.0000000000000000, -0.0065535660606781 ]
- atom:    2
  direction:
    [   0.0000000000000000,  1.0000000000000000,  0.0000000000000000 ]
  displacement:
    [   0.0000000000000000,  0.0100000000000000,  0.0000000000000000 ]
- atom:    2
  direction:
    [   0.0000000000000000, -1.0000000000000000,  0.0000000000000000 ]
  displacement:
    [   0.0000000000000000, -0.0100000000000000,  0.0000000000000000 ]
- atom:    3
  direction:
    [   1.0000000000000000,  0.0000000000000000,  1.0000000000000000 ]
  displacement:
    [   0.0075531961372871,  0.0000000000000000,  0.0065535660606781 ]
- atom:    3
  direction:
    [  -1.0000000000000000,  0.0000000000000000, -1.0000000000000000 ]
  displacement:
    [  -0.0075531961372871,  0.0000000000000000, -0.0065535660606781 ]
- atom:    3
  direction:
    [   0.0000000000000000,  1.0000000000000000,  0.0000000000000000 ]
  displacement:
    [   0.0000000000000000,  0.0100000000000000,  0.0000000000000000 ]
- atom:    3
  direction:
    [   0.0000000000000000, -1.0000000000000000,  0.0000000000000000 ]
  displacement:
    [   0.0000000000000000, -0.0100000000000000,  0.0000000000000000 ]
- atom:    4
  direction:
    [   1.0000000000000000,  0.0000000000000000,  1.0000000000000000 ]
  displacement:
    [   0.0075531961372871,  0.0000000000000000,  0.0065535660606781 ]
- atom:    4
  direction:
    [  -1.0000000000000000,  0.0000000000000000, -1.0000000000000000 ]
  displacement:
    [  -0.0075531961372871,  0.0000000000000000, -0.0065535660606781 ]
- atom:    4
  direction:
    [   0.0000000000000000,  1.0000000000000000,  0.0000000000000000 ]
  displacement:
    [   0.0000000000000000,  0.0100000000000000,  0.0000000000000000 ]
- atom:    4
  direction:
    [   0.0000000000000000, -1.0000000000000000,  0.0000000000000000 ]
  displacement:
    [   0.0000000000000000, -0.0100000000000000,  0.0000000000000000 ]
- atom:    5
  direction:
    [   1.0000000000000000,  0.0000000000000000,  1.0000000000000000 ]
  displacement:
    [   0.0075531961372871,  0.0000000000000000,  0.0065535660606781 ]
- atom:    5
  direction:
    [  -1.0000000000000000,  0.0000000000000000, -1.0000000000000000 ]
  displacement:
    [  -0.0075531961372871,  0.0000000000000000, -0.0065535660606781 ]
- atom:    5
  direction:
    [   0.0000000000000000,  1.0000000000000000,  0.0000000000000000 ]
  displacement:
    [   0.0000000000000000,  0.0100000000000000,  0.0000000000000000 ]
- atom:    5
  direction:
    [   0.0000000000000000, -1.0000000000000000,  0.0000000000000000 ]
  displacement:
    [   0.0000000000000000, -0.0100000000000000,  0.0000000000000000 ]
- atom:    6
  direction:
    [   1.0000000000000000,  0.0000000000000000,  1.0000000000000000 ]
  displacement:
    [   0.0075531961372871,  0.0000000000000000,  0.0065535660606781 ]
- atom:    6
  direction:
    [  -1.0000000000000000,  0.0000000000000000, -1.0000000000000000 ]
  displacement:
    [  -0.0075531961372871,  0.0000000000000000, -0.0065535660606781 ]
- atom:    6
  direction:
    [   0.0000000000000000,  1.0000000000000000,  0.0000000000000000 ]
  displacement:
    [   0.0000000000000000,  0.0100000000000000,  0.0000000000000000 ]
- atom:    6
  direction:
    [   0.0000000000000000, -1.0000000000000000,  0.0000000000000000 ]
  displacement:
    [   0.0000000000000000, -0.0100000000000000,  0.0000000000000000 ]
- atom:    7
  direction:
    [   1.0000000000000000,  0.0000000000000000,  1.0000000000000000 ]
  displacement:
    [   0.0075531961372871,  0.0000000000000000,  0.0065535660606781 ]
- atom:    7
  direction:
    [  -1.0000000000000000,  0.0000000000000000, -1.0000000000000000 ]
  displacement:
    [  -0.0075531961372871,  0.0000000000000000, -0.0065535660606781 ]
- atom:    7
  direction:
    [   0.0000000000000000,  1.0000000000000000,  0.0000000000000000 ]
  displacement:
    [   0.0000000000000000,  0.0100000000000000,  0.0000000000000000 ]
- atom:    7
  direction:
    [   0.0000000000000000, -1.0000000000000000,  0.0000000000000000 ]
  displacement:
    [   0.0000000000000000, -0.0100000000000000,  0.0000000000000000 ]
- atom:    8
  direction:
    [   1.0000000000000000,  0.0000000000000000,  1.0000000000000000 ]
  displacement:
    [   0.0075531961372871,  0.0000000000000000,  0.0065535660606781 ]
- atom:    8
  direction:
    [  -1.0000000000000000,  0.0000000000000000, -1.0000000000000000 ]
  displacement:
    [  -0.0075531961372871,  0.0000000000000000, -0.0065535660606781 ]
- atom:    8
  direction:
    [   0.0000000000000000,  1.0000000000000000,  0.0000000000000000 ]
  displacement:
    [   0.0000000000000000,  0.0100000000000000,  0.0000000000000000 ]
- atom:    8
  direction:
    [   0.0000000000000000, -1.0000000000000000,  0.0000000000000000 ]
  displacement:
    [   0.0000000000000000, -0.0100000000000000,  0.0000000000000000 ]
- atom:    9
  direction:
    [   1.0000000000000000,  0.0000000000000000,  1.0000000000000000 ]
  displacement:
    [   0.0075531961372871,  0.0000000000000000,  0.0065535660606781 ]
- atom:    9
  direction:
    [  -1.0000000000000000,  0.0000000000000000, -1.0000000000000000 ]
  displacement:
    [  -0.0075531961372871,  0.0000000000000000, -0.0065535660606781 ]
- atom:    9
  direction:
    [   0.0000000000000000,  1.0000000000000000,  0.0000000000000000 ]
  displacement:
    [   0.0000000000000000,  0.0100000000000000,  0.0000000000000000 ]
- atom:    9
  direction:
    [   0.0000000000000000, -1.0000000000000000,  0.0000000000000000 ]
  displacement:
    [   0.0000000000000000, -0.0100000000000000,  0.0000000000000000 ]
- atom:   10
  direction:
    [   1.0000000000000000,  0.0000000000000000,  1.0000000000000000 ]
  displacement:
    [   0.0075531961372871,  0.0000000000000000,  0.0065535660606781 ]
- atom:   10
  direction:
    [  -1.0000000000000000,  0.0000000000000000, -1.0000000000000000 ]
  displacement:
    [  -0.0075531961372871,  0.0000000000000000, -0.0065535660606781 ]
- atom:   10
  direction:
    [   0.0000000000000000,  1.0000000000000000,  0.0000000000000000 ]
  displacement:
    [   0.0000000000000000,  0.0100000000000000,  0.0000000000000000 ]
- atom:   10
  direction:
    [   0.0000000000000000, -1.0000000000000000,  0.0000000000000000 ]
  displacement:
    [   0.0000000000000000, -0.0100000000000000,  0.0000000000000000 ]
- atom:   11
  direction:
    [   1.0000000000000000,  0.0000000000000000,  1.0000000000000000 ]
  displacement:
    [   0.0075531961372871,  0.0000000000000000,  0.0065535660606781 ]
- atom:   11
  direction:
    [  -1.0000000000000000,  0.0000000000000000, -1.0000000000000000 ]
  displacement:
    [  -0.0075531961372871,  0.0000000000000000, -0.0065535660606781 ]
- atom:   11
  direction:
    [   0.0000000000000000,  1.0000000000000000,  0.0000000000000000 ]
  displacement:
    [   0.0000000000000000,  0.0100000000000000,  0.0000000000000000 ]
- atom:   11
  direction:
    [   0.0000000000000000, -1.0000000000000000,  0.0000000000000000 ]
  displacement:
    [   0.0000000000000000, -0.0100000000000000,  0.0000000000000000 ]
- atom:   12
  direction:
    [   1.0000000000000000,  0.0000000000000000,  1.0000000000000000 ]
  displacement:
    [   0.0075531961372871,  0.0000000000000000,  0.0065535660606781 ]
- atom:   12
  direction:
    [  -1.0000000000000000,  0.0000000000000000, -1.0000000000000000 ]
  displacement:
    [  -0.0075531961372871,  0.0000000000000000, -0.0065535660606781 ]
- atom:   12
  direction:
    [   0.0000000000000000,  1.0000000000000000,  0.0000000000000000 ]
  displacement:
    [   0.0000000000000000,  0.0100000000000000,  0.0000000000000000 ]
- atom:   12
  direction:
    [   0.0000000000000000, -1.0000000000000000,  0.0000000000000000 ]
  displacement:
    [   0.0000000000000000, -0.0100000000000000,  0.0000000000000000 ]
- atom:   13
  direction:
    [   1.0000000000000000,  0.0000000000000000,  1.0000000000000000 ]
  displacement:
    [   0.0075531961372871,  0.0000000000000000,  0.0065535660606781 ]
- atom:   13
  direction:
    [  -1.0000000000000000,  0.0000000000000000, -1.0000000000000000 ]
  displacement:
    [  -0.0075531961372871,  0.0000000000000000, -0.0065535660606781 ]
- atom:   13
  direction:
    [   0.0000000000000000,  1.0000000000000000,  0.0000000000000000 ]
  displacement:
    [   0.0000000000000000,  0.0100000000000000,  0.0000000000000000 ]
- atom:   13
  direction:
    [   0.0000000000000000, -1.0000000000000000,  0.0000000000000000 ]
  displacement:
    [   0.0000000000000000, -0.0100000000000000,  0.0000000000000000 ]
- atom:   14
  direction:
    [   1.0000000000000000,  0.0000000000000000,  0.0000000000000000 ]
  displacement:
    [   0.0100000000000000,  0.0000000000000000,  0.0000000000000000 ]
- atom:   14
  direction:
    [  -1.0000000000000000,  0.0000000000000000,  0.0000000000000000 ]
  displacement:
    [  -0.0100000000000000,  0.0000000000000000,  0.0000000000000000 ]
- atom:   14
  direction:
    [   0.0000000000000000,  1.0000000000000000,  0.0000000000000000 ]
  displacement:
    [   0.0000000000000000,  0.0100000000000000,  0.0000000000000000 ]
- atom:   14
  direction:
    [   0.0000000000000000, -1.0000000000000000,  0.0000000000000000 ]
  displacement:
    [   0.0000000000000000, -0.0100000000000000,  0.0000000000000000 ]
- atom:   14
  direction:
    [   0.0000000000000000,  0.0000000000000000,  1.0000000000000000 ]
  displacement:
    [   0.0000000000000000,  0.0000000000000000,  0.0100000000000000 ]
- atom:   14
  direction:
    [   0.0000000000000000,  0.0000000000000000, -1.0000000000000000 ]
  displacement:
    [   0.0000000000000000,  0.0000000000000000, -0.0100000000000000 ]
- atom:   16
  direction:
    [   1.0000000000000000,  0.0000000000000000,  1.0000000000000000 ]
  displacement:
    [   0.0075531961372871,  0.0000000000000000,  0.0065535660606781 ]
- atom:   16
  direction:
    [  -1.0000000000000000,  0.0000000000000000, -1.0000000000000000 ]
  displacement:
    [  -0.0075531961372871,  0.0000000000000000, -0.0065535660606781 ]
- atom:   16
  direction:
    [   0.0000000000000000,  1.0000000000000000,  0.0000000000000000 ]
  displacement:
    [   0.0000000000000000,  0.0100000000000000,  0.0000000000000000 ]
- atom:   16
  direction:
    [   0.0000000000000000, -1.0000000000000000,  0.0000000000000000 ]
  displacement:
    [   0.0000000000000000, -0.0100000000000000,  0.0000000000000000 ]
lattice:
- [    19.364570000000001,     0.000000000000000,     0.000000000000000 ] # a
- [     0.000000000000000,    22.455089999999998,     0.000000000000000 ] # b
- [     0.000000000000000,     0.000000000000000,    16.801760000000002 ] # c
points:
- symbol: C  # 1
  coordinates: [  0.438200822968261,  0.484708385983336,  0.500000000000000 ]
  mass: 12.010700
- symbol: C  # 2
  coordinates: [  0.437486303272764,  0.422774205876969,  0.500000000000000 ]
  mass: 12.010700
- symbol: C  # 3
  coordinates: [  0.501366111212824,  0.515413823112659,  0.500000000000000 ]
  mass: 12.010700
- symbol: C  # 4
  coordinates: [  0.563625641705435,  0.483559843262509,  0.500000000000000 ]
  mass: 12.010700
- symbol: C  # 5
  coordinates: [  0.561928753537353,  0.421222903182926,  0.500000000000000 ]
  mass: 12.010700
- symbol: C  # 6
  coordinates: [  0.499378303405422,  0.390507051850322,  0.500000000000000 ]
  mass: 12.010700
- symbol: C  # 7
  coordinates: [  0.558944868333634,  0.609929178182156,  0.500000000000000 ]
  mass: 12.010700
- symbol: H  # 8
  coordinates: [  0.390486381563214,  0.510465977735916,  0.500000000000000 ]
  mass: 1.007940
- symbol: H  # 9
  coordinates: [  0.388096282511602,  0.399405772985300,  0.500000000000000 ]
  mass: 1.007940
- symbol: H  # 10
  coordinates: [  0.613165658592489,  0.506476349081639,  0.500000000000000 ]
  mass: 1.007940
- symbol: H  # 11
  coordinates: [  0.498623599066031,  0.341977202461820,  0.500000000000000 ]
  mass: 1.007940
- symbol: H  # 12
  coordinates: [  0.610549266144023,  0.396668403724487,  0.500000000000000 ]
  mass: 1.007940
- symbol: H  # 13
  coordinates: [  0.543131069417629,  0.656764713261146,  0.500000000000000 ]
  mass: 1.007940
- symbol: H  # 14
  coordinates: [  0.590172817217983,  0.600843794021220,  0.446490817611893 ]
  mass: 1.007940
- symbol: H  # 15
  coordinates: [  0.590172817217983,  0.600843794021220,  0.553509182388107 ]
  mass: 1.007940
- symbol: O  # 16
  coordinates: [  0.496474101416784,  0.576327596579942,  0.500000000000000 ]
  mass: 15.999400