natom:   16
displacements:
- atom:    1
  direction:
    [   1.0000000000000000,  0.0000000000000000,  1.0000000000000000 ]
  displacement:
    [   0.0075531961372871,  0.0000000000000000,  0.0065535660606781 ]
- atom:    1
  direction:
    [  -1.0000000000000000,  0.0000000000000000, -1.0000000000000000 ]
  displacement:
    [  -0.0075531961372871,  0.0000000000000000, -0.0065535660606781 ]
- atom:    1
  direction:
    [   0.0000000000000000,  1.0000000000000000,  0.0000000000000000 ]
  displacement:
    [   0.0000000000000000,  0.0100000000000000,  0.0000000000000000 ]
- atom:    1
  direction:
    [   0.0000000000000000, -1.0000000000000000,  0.0000000000000000 ]
  displacement:
    [   0.0000000000000000, -0.0100000000000000,  0.0000000000000000 ]
- atom:    2
  direction:
    [   1.0000000000000000,  0.0000000000000000,  1.0000000000000000 ]
  displacement:
    [   0.0075531961372871,  0.0000000000000000,  0.0065535660606781 ]
- atom:    2
  direction:
    [  -1.0000000000000000,  0.0000000000000000, -1.0000000000000000 ]
  displacement:
    [  -0.0075531961372871,  0.0000000000000000, -0.0065535660606781 ]
- atom:    2
  direction:
    [   0.0000000000000000,  1.0000000000000000,  0.0000000000000000 ]
  displacement:
    [   0.0000000000000000,  0.0100000000000000,  0.0000000000000000 ]
- atom:    2
  direction:
    [   0.0000000000000000, -1.0000000000000000,  0.0000000000000000 ]
  displacement:
    [   0.0000000000000000, -0.0100000000000000,  0.0000000000000000 ]
- atom:    3
  direction:
    [   1.0000000000000000,  0.0000000000000000,  1.0000000000000000 ]
  displacement:
    [   0.0075531961372871,  0.0000000000000000,  0.0065535660606781 ]
- atom:    3
  direction:
    [  -1.0000000000000000,  0.0000000000000000, -1.0000000000000000 ]
  displacement:
    [  -0.0075531961372871,  0.0000000000000000, -0.0065535660606781 ]
- atom:    3
  direction:
    [   0.0000000000000000,  1.0000000000000000,  0.0000000000000000 ]
  displacement:
    [   0.0000000000000000,  0.0100000000000000,  0.0000000000000000 ]
- atom:    3
  direction:
    [   0.0000000000000000, -1.0000000000000000,  0.0000000000000000 ]
  displacement:
    [   0.0000000000000000, -0.0100000000000000,  0.0000000000000000 ]
- atom:    4
  direction:
    [   1.0000000000000000,  0.0000000000000000,  1.0000000000000000 ]
  displacement:
    [   0.0075531961372871,  0.0000000000000000,  0.0065535660606781 ]
- atom:    4
  direction:
    [  -1.0000000000000000,  0.0000000000000000, -1.0000000000000000 ]
  displacement:
    [  -0.0075531961372871,  0.0000000000000000, -0.0065535660606781 ]
- atom:    4
  direction:
    [   0.0000000000000000,  1.0000000000000000,  0.0000000000000000 ]
  displacement:
    [   0.0000000000000000,  0.0100000000000000,  0.0000000000000000 ]
- atom:    4
  direction:
    [   0.0000000000000000, -1.0000000000000000,  0.0000000000000000 ]
  displacement:
    [   0.0000000000000000, -0.0100000000000000,  0.0000000000000000 ]
- atom:    5
  direction:
    [   1.0000000000000000,  0.0000000000000000,  1.0000000000000000 ]
  displacement:
    [   0.0075531961372871,  0.0000000000000000,  0.0065535660606781 ]
- atom:    5
  direction:
    [  -1.0000000000000000,  0.0000000000000000, -1.0000000000000000 ]
  displacement:
    [  -0.0075531961372871,  0.0000000000000000, -0.0065535660606781 ]
- atom:    5
  direction:
    [   0.0000000000000000,  1.0000000000000000,  0.0000000000000000 ]
  displacement:
    [   0.0000000000000000,  0.0100000000000000,  0.0000000000000000 ]
- atom:    5
  direction:
    [   0.0000000000000000, -1.0000000000000000,  0.0000000000000000 ]
  displacement:
    [   0.0000000000000000, -0.0100000000000000,  0.0000000000000000 ]
- atom:    6
  direction:
    [   1.0000000000000000,  0.0000000000000000,  1.0000000000000000 ]
  displacement:
    [   0.0075531961372871,  0.0000000000000000,  0.0065535660606781 ]
- atom:    6
  direction:
    [  -1.0000000000000000,  0.0000000000000000, -1.0000000000000000 ]
  displacement:
    [  -0.0075531961372871,  0.0000000000000000, -0.0065535660606781 ]
- atom:    6
  direction:
    [   0.0000000000000000,  1.0000000000000000,  0.0000000000000000 ]
  displacement:
    [   0.0000000000000000,  0.0100000000000000,  0.0000000000000000 ]
- atom:    6
  direction:
    [   0.0000000000000000, -1.0000000000000000,  0.0000000000000000 ]
  displacement:
    [   0.0000000000000000, -0.0100000000000000,  0.0000000000000000 ]
- atom:    7
  direction:
    [   1.0000000000000000,  0.0000000000000000,  1.0000000000000000 ]
  displacement:
    [   0.0075531961372871,  0.0000000000000000,  0.0065535660606781 ]
- atom:    7
  direction:
    [  -1.0000000000000000,  0.0000000000000000, -1.0000000000000000 ]
  displacement:
    [  -0.0075531961372871,  0.0000000000000000, -0.0065535660606781 ]
- atom:    7
  direction:
    [   0.0000000000000000,  1.0000000000000000,  0.0000000000000000 ]
  displacement:
    [   0.0000000000000000,  0.0100000000000000,  0.0000000000000000 ]
- atom:    7
  direction:
    [   0.0000000000000000, -1.0000000000000000,  0.0000000000000000 ]
  displacement:
    [   0.0000000000000000, -0.0100000000000000,  0.0000000000000000 ]
- atom:    8
  direction:
    [   1.0000000000000000,  0.0000000000000000,  1.0000000000000000 ]
  displacement:
    [   0.0075531961372871,  0.0000000000000000,  0.0065535660606781 ]
- atom:    8
  direction:
    [  -1.0000000000000000,  0.0000000000000000, -1.0000000000000000 ]
  displacement:
    [  -0.0075531961372871,  0.0000000000000000, -0.0065535660606781 ]
- atom:    8
  direction:
    [   0.0000000000000000,  1.0000000000000000,  0.0000000000000000 ]
  displacement:
    [   0.0000000000000000,  0.0100000000000000,  0.0000000000000000 ]
- atom:    8
  direction:
    [   0.0000000000000000, -1.0000000000000000,  0.0000000000000000 ]
  displacement:
    [   0.0000000000000000, -0.0100000000000000,  0.0000000000000000 ]
- atom:    9
  direction:
    [   1.0000000000000000,  0.0000000000000000,  1.0000000000000000 ]
  displacement:
    [   0.0075531961372871,  0.0000000000000000,  0.0065535660606781 ]
- atom:    9
  direction:
    [  -1.0000000000000000,  0.0000000000000000, -1.0000000000000000 ]
  displacement:
    [  -0.0075531961372871,  0.0000000000000000, -0.0065535660606781 ]
- atom:    9
  direction:
    [   0.0000000000000000,  1.0000000000000000,  0.0000000000000000 ]
  displacement:
    [   0.0000000000000000,  0.0100000000000000,  0.0000000000000000 ]
- atom:    9
  direction:
    [   0.0000000000000000, -1.0000000000000000,  0.0000000000000000 ]
  displacement:
    [   0.0000000000000000, -0.0100000000000000,  0.0000000000000000 ]
- atom:   10
  direction:
    [   1.0000000000000000,  0.0000000000000000,  1.0000000000000000 ]
  displacement:
    [   0.0075531961372871,  0.0000000000000000,  0.0065535660606781 ]
- atom:   10
  direction:
    [  -1.0000000000000000,  0.0000000000000000, -1.0000000000000000 ]
  displacement:
    [  -0.0075531961372871,  0.0000000000000000, -0.0065535660606781 ]
- atom:   10
  direction:
    [   0.0000000000000000,  1.0000000000000000,  0.0000000000000000 ]
  displacement:
    [   0.0000000000000000,  0.0100000000000000,  0.0000000000000000 ]
- atom:   10
  direction:
    [   0.0000000000000000, -1.0000000000000000,  0.0000000000000000 ]
  displacement:
    [   0.0000000000000000, -0.0100000000000000,  0.0000000000000000 ]
- atom:   11
  direction:
    [   1.0000000000000000,  0.0000000000000000,  1.0000000000000000 ]
  displacement:
    [   0.0075531961372871,  0.0000000000000000,  0.0065535660606781 ]
- atom:   11
  direction:
    [  -1.0000000000000000,  0.0000000000000000, -1.0000000000000000 ]
  displacement:
    [  -0.0075531961372871,  0.0000000000000000, -0.0065535660606781 ]
- atom:   11
  direction:
    [   0.0000000000000000,  1.0000000000000000,  0.0000000000000000 ]
  displacement:
    [   0.0000000000000000,  0.0100000000000000,  0.0000000000000000 ]
- atom:   11
  direction:
    [   0.0000000000000000, -1.0000000000000000,  0.0000000000000000 ]
  displacement:
    [   0.0000000000000000, -0.0100000000000000,  0.0000000000000000 ]
- atom:   12
  direction:
    [   1.0000000000000000,  0.0000000000000000,  1.0000000000000000 ]
  displacement:
    [   0.0075531961372871,  0.0000000000000000,  0.0065535660606781 ]
- atom:   12
  direction:
    [  -1.0000000000000000,  0.0000000000000000, -1.0000000000000000 ]
  displacement:
    [  -0.0075531961372871,  0.0000000000000000, -0.0065535660606781 ]
- atom:   12
  direction:
    [   0.0000000000000000,  1.0000000000000000,  0.0000000000000000 ]
  displacement:
    [   0.0000000000000000,  0.0100000000000000,  0.0000000000000000 ]
- atom:   12
  direction:
    [   0.0000000000000000, -1.0000000000000000,  0.0000000000000000 ]
  displacement:
    [   0.0000000000000000, -0.0100000000000000,  0.0000000000000000 ]
- atom:   13
  direction:
    [   1.0000000000000000,  0.0000000000000000,  1.0000000000000000 ]
  displacement:
    [   0.0075531961372871,  0.0000000000000000,  0.0065535660606781 ]
- atom:   13
  direction:
    [  -1.0000000000000000,  0.0000000000000000, -1.0000000000000000 ]
  displacement:
    [  -0.0075531961372871,  0.0000000000000000, -0.0065535660606781 ]
- atom:   13
  direction:
    [   0.0000000000000000,  1.0000000000000000,  0.0000000000000000 ]
  displacement:
    [   0.0000000000000000,  0.0100000000000000,  0.0000000000000000 ]
- atom:   13
  direction:
    [   0.0000000000000000, -1.0000000000000000,  0.0000000000000000 ]
  displacement:
    [   0.0000000000000000, -0.0100000000000000,  0.0000000000000000 ]
- atom:   14
  direction:
    [   1.0000000000000000,  0.0000000000000000,  0.0000000000000000 ]
  displacement:
    [   0.0100000000000000,  0.0000000000000000,  0.0000000000000000 ]
- atom:   14
  direction:
    [  -1.0000000000000000,  0.0000000000000000,  0.0000000000000000 ]
  displacement:
    [  -0.0100000000000000,  0.0000000000000000,  0.0000000000000000 ]
- atom:   14
  direction:
    [   0.0000000000000000,  1.0000000000000000,  0.0000000000000000 ]
  displacement:
    [   0.0000000000000000,  0.0100000000000000,  0.0000000000000000 ]
- atom:   14
  direction:
    [   0.0000000000000000, -1.0000000000000000,  0.0000000000000000 ]
  displacement:
    [   0.0000000000000000, -0.0100000000000000,  0.0000000000000000 ]
- atom:   14
  direction:
    [   0.0000000000000000,  0.0000000000000000,  1.0000000000000000 ]
  displacement:
    [   0.0000000000000000,  0.0000000000000000,  0.0100000000000000 ]
- atom:   14
  direction:
    [   0.0000000000000000,  0.0000000000000000, -1.0000000000000000 ]
  displacement:
    [   0.0000000000000000,  0.0000000000000000, -0.0100000000000000 ]
- atom:   16
  direction:
    [   1.0000000000000000,  0.0000000000000000,  1.0000000000000000 ]
  displacement:
    [   0.0075531961372871,  0.0000000000000000,  0.0065535660606781 ]
- atom:   16
  direction:
    [  -1.0000000000000000,  0.0000000000000000, -1.0000000000000000 ]
  displacement:
    [  -0.0075531961372871,  0.0000000000000000, -0.0065535660606781 ]
- atom:   16
  direction:
    [   0.0000000000000000,  1.0000000000000000,  0.0000000000000000 ]
  displacement:
    [   0.0000000000000000,  0.0100000000000000,  0.0000000000000000 ]
- atom:   16
  direction:
    [   0.0000000000000000, -1.0000000000000000,  0.0000000000000000 ]
  displacement:
    [   0.0000000000000000, -0.0100000000000000,  0.0000000000000000 ]
lattice:
- [    19.3645700000000005,     0.0000000000000000,     0.0000000000000000 ] # a
- [     0.0000000000000000,    22.4550899999999984,     0.0000000000000000 ] # b
- [     0.0000000000000000,     0.0000000000000000,    16.8017600000000016 ] # c
atoms:
- symbol: C  # 1
  position: [  0.4382008229682608,  0.4847083859833361,  0.5000000000000000 ]
  mass: 12.010700
- symbol: C  # 2
  position: [  0.4374863032727642,  0.4227742058769691,  0.5000000000000000 ]
  mass: 12.010700
- symbol: C  # 3
  position: [  0.5013661112128239,  0.5154138231126588,  0.5000000000000000 ]
  mass: 12.010700
- symbol: C  # 4
  position: [  0.5636256417054352,  0.4835598432625086,  0.5000000000000000 ]
  mass: 12.010700
- symbol: C  # 5
  position: [  0.5619287535373529,  0.4212229031829258,  0.5000000000000000 ]
  mass: 12.010700
- symbol: C  # 6
  position: [  0.4993783034054217,  0.3905070518503222,  0.5000000000000000 ]
  mass: 12.010700
- symbol: C  # 7
  position: [  0.5589448683336338,  0.6099291781821561,  0.5000000000000000 ]
  mass: 12.010700
- symbol: H  # 8
  position: [  0.3904863815632139,  0.5104659777359157,  0.5000000000000000 ]
  mass: 1.007940
- symbol: H  # 9
  position: [  0.3880962825116017,  0.3994057729853004,  0.5000000000000000 ]
  mass: 1.007940
- symbol: H  # 10
  position: [  0.6131656585924888,  0.5064763490816385,  0.5000000000000000 ]
  mass: 1.007940
- symbol: H  # 11
  position: [  0.4986235990660307,  0.3419772024618196,  0.5000000000000000 ]
  mass: 1.007940
- symbol: H  # 12
  position: [  0.6105492661440234,  0.3966684037244869,  0.5000000000000000 ]
  mass: 1.007940
- symbol: H  # 13
  position: [  0.5431310694176293,  0.6567647132611464,  0.5000000000000000 ]
  mass: 1.007940
- symbol: H  # 14
  position: [  0.5901728172179826,  0.6008437940212203,  0.4464908176118927 ]
  mass: 1.007940
- symbol: H  # 15
  position: [  0.5901728172179826,  0.6008437940212203,  0.5535091823881073 ]
  mass: 1.007940
- symbol: O  # 16
  position: [  0.4964741014167840,  0.5763275965799418,  0.5000000000000000 ]
  mass: 15.999400