mesh: [     1,     1,     1 ]
nqpoint: 1      
reciprocal_lattice:
- [   0.05164070,   0.00000000,   0.00000000 ] # a*
- [   0.00000000,   0.04453333,   0.00000000 ] # b*
- [   0.00000000,   0.00000000,   0.05951757 ] # c*
natom:   16     
lattice:
- [    19.364570000000001,     0.000000000000000,     0.000000000000000 ] # a
- [     0.000000000000000,    22.455089999999998,     0.000000000000000 ] # b
- [     0.000000000000000,     0.000000000000000,    16.801760000000002 ] # c
points:
- symbol: C  # 1
  coordinates: [  0.438200822968261,  0.484708385983336,  0.500000000000000 ]
  mass: 12.010700
- symbol: C  # 2
  coordinates: [  0.437486303272764,  0.422774205876969,  0.500000000000000 ]
  mass: 12.010700
- symbol: C  # 3
  coordinates: [  0.501366111212824,  0.515413823112659,  0.500000000000000 ]
  mass: 12.010700
- symbol: C  # 4
  coordinates: [  0.563625641705435,  0.483559843262509,  0.500000000000000 ]
  mass: 12.010700
- symbol: C  # 5
  coordinates: [  0.561928753537353,  0.421222903182926,  0.500000000000000 ]
  mass: 12.010700
- symbol: C  # 6
  coordinates: [  0.499378303405422,  0.390507051850322,  0.500000000000000 ]
  mass: 12.010700
- symbol: C  # 7
  coordinates: [  0.558944868333634,  0.609929178182156,  0.500000000000000 ]
  mass: 12.010700
- symbol: H  # 8
  coordinates: [  0.390486381563214,  0.510465977735916,  0.500000000000000 ]
  mass: 1.007940
- symbol: H  # 9
  coordinates: [  0.388096282511602,  0.399405772985300,  0.500000000000000 ]
  mass: 1.007940
- symbol: H  # 10
  coordinates: [  0.613165658592489,  0.506476349081639,  0.500000000000000 ]
  mass: 1.007940
- symbol: H  # 11
  coordinates: [  0.498623599066031,  0.341977202461820,  0.500000000000000 ]
  mass: 1.007940
- symbol: H  # 12
  coordinates: [  0.610549266144023,  0.396668403724487,  0.500000000000000 ]
  mass: 1.007940
- symbol: H  # 13
  coordinates: [  0.543131069417629,  0.656764713261146,  0.500000000000000 ]
  mass: 1.007940
- symbol: H  # 14
  coordinates: [  0.590172817217983,  0.600843794021220,  0.446490817611893 ]
  mass: 1.007940
- symbol: H  # 15
  coordinates: [  0.590172817217983,  0.600843794021220,  0.553509182388107 ]
  mass: 1.007940
- symbol: O  # 16
  coordinates: [  0.496474101416784,  0.576327596579942,  0.500000000000000 ]
  mass: 15.999400
phonon:
- q-position: [    0.0000000,    0.0000000,    0.0000000 ]
  weight: 1    
  band:
  - # 1
    frequency:    -0.3695387994
    eigenvector:
    - # atom 1
      - [  0.00000000000000,  0.00000000000000 ]
      - [ -0.00000000000144,  0.00000000000000 ]
      - [ -0.45083788226158,  0.00000000000000 ]
    - # atom 2
      - [  0.00000000000080,  0.00000000000000 ]
      - [ -0.00000000000145,  0.00000000000000 ]
      - [ -0.44079597049274,  0.00000000000000 ]
    - # atom 3
      - [ -0.00000000000040,  0.00000000000000 ]
      - [ -0.00000000000073,  0.00000000000000 ]
      - [ -0.05280433356217,  0.00000000000000 ]
    - # atom 4
      - [  0.00000000000001,  0.00000000000000 ]
      - [ -0.00000000000004,  0.00000000000000 ]
      - [  0.35245742069689,  0.00000000000000 ]
    - # atom 5
      - [  0.00000000000082,  0.00000000000000 ]
      - [ -0.00000000000006,  0.00000000000000 ]
      - [  0.35598931011945,  0.00000000000000 ]
    - # atom 6
      - [  0.00000000000122,  0.00000000000000 ]
      - [ -0.00000000000076,  0.00000000000000 ]
      - [ -0.03674873844991,  0.00000000000000 ]
    - # atom 7
      - [ -0.00000000000162,  0.00000000000000 ]
      - [ -0.00000000000009,  0.00000000000000 ]
      - [  0.31403171325360,  0.00000000000000 ]
    - # atom 8
      - [ -0.00000000000010,  0.00000000000000 ]
      - [ -0.00000000000057,  0.00000000000000 ]
      - [ -0.22095128106943,  0.00000000000000 ]
    - # atom 9
      - [  0.00000000000032,  0.00000000000000 ]
      - [ -0.00000000000058,  0.00000000000000 ]
      - [ -0.21772588142199,  0.00000000000000 ]
    - # atom 10
      - [ -0.00000000000008,  0.00000000000000 ]
      - [  0.00000000000015,  0.00000000000000 ]
      - [  0.19245942873429,  0.00000000000000 ]
    - # atom 11
      - [  0.00000000000054,  0.00000000000000 ]
      - [ -0.00000000000022,  0.00000000000000 ]
      - [ -0.00851845018934,  0.00000000000000 ]
    - # atom 12
      - [  0.00000000000033,  0.00000000000000 ]
      - [  0.00000000000014,  0.00000000000000 ]
      - [  0.19501534586787,  0.00000000000000 ]
    - # atom 13
      - [ -0.00000000000064,  0.00000000000000 ]
      - [ -0.00000000000008,  0.00000000000000 ]
      - [  0.06048787920116,  0.00000000000000 ]
    - # atom 14
      - [  0.08882960215827,  0.00000000000000 ]
      - [ -0.00022860319647,  0.00000000000000 ]
      - [  0.15076520655225,  0.00000000000000 ]
    - # atom 15
      - [ -0.08882960215914,  0.00000000000000 ]
      - [  0.00022860319661,  0.00000000000000 ]
      - [  0.15076520655225,  0.00000000000000 ]
    - # atom 16
      - [ -0.00000000000137,  0.00000000000000 ]
      - [ -0.00000000000091,  0.00000000000000 ]
      - [ -0.11165133795246,  0.00000000000000 ]
  - # 2
    frequency:     0.0000004987
    eigenvector:
    - # atom 1
      - [  0.00000000000000,  0.00000000000000 ]
      - [ -0.13543326821508,  0.00000000000000 ]
      - [  0.30450990027127,  0.00000000000000 ]
    - # atom 2
      - [ -0.00000000000433,  0.00000000000000 ]
      - [ -0.13543326821504,  0.00000000000000 ]
      - [  0.30450990026977,  0.00000000000000 ]
    - # atom 3
      - [  0.00000000000215,  0.00000000000000 ]
      - [ -0.13543326821889,  0.00000000000000 ]
      - [  0.30450990027023,  0.00000000000000 ]
    - # atom 4
      - [ -0.00000000000008,  0.00000000000000 ]
      - [ -0.13543326822265,  0.00000000000000 ]
      - [  0.30450990026769,  0.00000000000000 ]
    - # atom 5
      - [ -0.00000000000444,  0.00000000000000 ]
      - [ -0.13543326822255,  0.00000000000000 ]
      - [  0.30450990026621,  0.00000000000000 ]
    - # atom 6
      - [ -0.00000000000659,  0.00000000000000 ]
      - [ -0.13543326821877,  0.00000000000000 ]
      - [  0.30450990026722,  0.00000000000000 ]
    - # atom 7
      - [  0.00000000000875,  0.00000000000000 ]
      - [ -0.13543326822236,  0.00000000000000 ]
      - [  0.30450990027086,  0.00000000000000 ]
    - # atom 8
      - [  0.00000000000052,  0.00000000000000 ]
      - [ -0.03923363426780,  0.00000000000000 ]
      - [  0.08821340735519,  0.00000000000000 ]
    - # atom 9
      - [ -0.00000000000173,  0.00000000000000 ]
      - [ -0.03923363426776,  0.00000000000000 ]
      - [  0.08821340735441,  0.00000000000000 ]
    - # atom 10
      - [  0.00000000000044,  0.00000000000000 ]
      - [ -0.03923363427170,  0.00000000000000 ]
      - [  0.08821340735333,  0.00000000000000 ]
    - # atom 11
      - [ -0.00000000000289,  0.00000000000000 ]
      - [ -0.03923363426970,  0.00000000000000 ]
      - [  0.08821340735310,  0.00000000000000 ]
    - # atom 12
      - [ -0.00000000000178,  0.00000000000000 ]
      - [ -0.03923363427165,  0.00000000000000 ]
      - [  0.08821340735257,  0.00000000000000 ]
    - # atom 13
      - [  0.00000000000348,  0.00000000000000 ]
      - [ -0.03923363427047,  0.00000000000000 ]
      - [  0.08821340735495,  0.00000000000000 ]
    - # atom 14
      - [  0.00000000000196,  0.00000000000000 ]
      - [ -0.03923363427102,  0.00000000000000 ]
      - [  0.08821340735416,  0.00000000000000 ]
    - # atom 15
      - [  0.00000000000274,  0.00000000000000 ]
      - [ -0.03923363427157,  0.00000000000000 ]
      - [  0.08821340735417,  0.00000000000000 ]
    - # atom 16
      - [  0.00000000000739,  0.00000000000000 ]
      - [ -0.15631226179397,  0.00000000000000 ]
      - [  0.35145449767426,  0.00000000000000 ]
  - # 3
    frequency:     0.0000007944
    eigenvector:
    - # atom 1
      - [  0.00000000000000,  0.00000000000000 ]
      - [  0.30450990026923,  0.00000000000000 ]
      - [  0.13543326821874,  0.00000000000000 ]
    - # atom 2
      - [  0.00000000000024,  0.00000000000000 ]
      - [  0.30450990026922,  0.00000000000000 ]
      - [  0.13543326821994,  0.00000000000000 ]
    - # atom 3
      - [ -0.00000000000012,  0.00000000000000 ]
      - [  0.30450990026944,  0.00000000000000 ]
      - [  0.13543326821879,  0.00000000000000 ]
    - # atom 4
      - [  0.00000000000000,  0.00000000000000 ]
      - [  0.30450990026965,  0.00000000000000 ]
      - [  0.13543326822004,  0.00000000000000 ]
    - # atom 5
      - [  0.00000000000025,  0.00000000000000 ]
      - [  0.30450990026964,  0.00000000000000 ]
      - [  0.13543326822124,  0.00000000000000 ]
    - # atom 6
      - [  0.00000000000037,  0.00000000000000 ]
      - [  0.30450990026943,  0.00000000000000 ]
      - [  0.13543326822120,  0.00000000000000 ]
    - # atom 7
      - [ -0.00000000000048,  0.00000000000000 ]
      - [  0.30450990026963,  0.00000000000000 ]
      - [  0.13543326821755,  0.00000000000000 ]
    - # atom 8
      - [ -0.00000000000003,  0.00000000000000 ]
      - [  0.08821340735397,  0.00000000000000 ]
      - [  0.03923363426941,  0.00000000000000 ]
    - # atom 9
      - [  0.00000000000010,  0.00000000000000 ]
      - [  0.08821340735397,  0.00000000000000 ]
      - [  0.03923363427003,  0.00000000000000 ]
    - # atom 10
      - [ -0.00000000000002,  0.00000000000000 ]
      - [  0.08821340735419,  0.00000000000000 ]
      - [  0.03923363427009,  0.00000000000000 ]
    - # atom 11
      - [  0.00000000000016,  0.00000000000000 ]
      - [  0.08821340735408,  0.00000000000000 ]
      - [  0.03923363427068,  0.00000000000000 ]
    - # atom 12
      - [  0.00000000000010,  0.00000000000000 ]
      - [  0.08821340735419,  0.00000000000000 ]
      - [  0.03923363427071,  0.00000000000000 ]
    - # atom 13
      - [ -0.00000000000019,  0.00000000000000 ]
      - [  0.08821340735412,  0.00000000000000 ]
      - [  0.03923363426905,  0.00000000000000 ]
    - # atom 14
      - [  0.00000000000001,  0.00000000000000 ]
      - [  0.08821340735394,  0.00000000000000 ]
      - [  0.03923363426950,  0.00000000000000 ]
    - # atom 15
      - [ -0.00000000000027,  0.00000000000000 ]
      - [  0.08821340735439,  0.00000000000000 ]
      - [  0.03923363426950,  0.00000000000000 ]
    - # atom 16
      - [ -0.00000000000041,  0.00000000000000 ]
      - [  0.35145449767144,  0.00000000000000 ]
      - [  0.15631226179276,  0.00000000000000 ]
  - # 4
    frequency:     0.0000014933
    eigenvector:
    - # atom 1
      - [  0.33326933477691,  0.00000000000000 ]
      - [  0.00000000000069,  0.00000000000000 ]
      - [ -0.00000000000065,  0.00000000000000 ]
    - # atom 2
      - [  0.33326933477645,  0.00000000000000 ]
      - [  0.00000000000069,  0.00000000000000 ]
      - [ -0.00000000000046,  0.00000000000000 ]
    - # atom 3
      - [  0.33326933477713,  0.00000000000000 ]
      - [  0.00000000000029,  0.00000000000000 ]
      - [ -0.00000000000057,  0.00000000000000 ]
    - # atom 4
      - [  0.33326933477690,  0.00000000000000 ]
      - [ -0.00000000000011,  0.00000000000000 ]
      - [ -0.00000000000030,  0.00000000000000 ]
    - # atom 5
      - [  0.33326933477644,  0.00000000000000 ]
      - [ -0.00000000000010,  0.00000000000000 ]
      - [ -0.00000000000011,  0.00000000000000 ]
    - # atom 6
      - [  0.33326933477621,  0.00000000000000 ]
      - [  0.00000000000030,  0.00000000000000 ]
      - [ -0.00000000000019,  0.00000000000000 ]
    - # atom 7
      - [  0.33326933477784,  0.00000000000000 ]
      - [ -0.00000000000008,  0.00000000000000 ]
      - [ -0.00000000000068,  0.00000000000000 ]
    - # atom 8
      - [  0.09654472173582,  0.00000000000000 ]
      - [  0.00000000000029,  0.00000000000000 ]
      - [ -0.00000000000025,  0.00000000000000 ]
    - # atom 9
      - [  0.09654472173558,  0.00000000000000 ]
      - [  0.00000000000029,  0.00000000000000 ]
      - [ -0.00000000000015,  0.00000000000000 ]
    - # atom 10
      - [  0.09654472173581,  0.00000000000000 ]
      - [ -0.00000000000012,  0.00000000000000 ]
      - [ -0.00000000000007,  0.00000000000000 ]
    - # atom 11
      - [  0.09654472173546,  0.00000000000000 ]
      - [  0.00000000000009,  0.00000000000000 ]
      - [ -0.00000000000001,  0.00000000000000 ]
    - # atom 12
      - [  0.09654472173558,  0.00000000000000 ]
      - [ -0.00000000000012,  0.00000000000000 ]
      - [  0.00000000000003,  0.00000000000000 ]
    - # atom 13
      - [  0.09654472173614,  0.00000000000000 ]
      - [  0.00000000000000,  0.00000000000000 ]
      - [ -0.00000000000025,  0.00000000000000 ]
    - # atom 14
      - [  0.09654472173606,  0.00000000000000 ]
      - [ -0.00000000000012,  0.00000000000000 ]
      - [ -0.00000000000016,  0.00000000000000 ]
    - # atom 15
      - [  0.09654472173598,  0.00000000000000 ]
      - [ -0.00000000000005,  0.00000000000000 ]
      - [ -0.00000000000016,  0.00000000000000 ]
    - # atom 16
      - [  0.38464761421523,  0.00000000000000 ]
      - [  0.00000000000037,  0.00000000000000 ]
      - [ -0.00000000000088,  0.00000000000000 ]
  - # 5
    frequency:     0.1998083857
    eigenvector:
    - # atom 1
      - [  0.00000000000000,  0.00000000000000 ]
      - [  0.00000000000376,  0.00000000000000 ]
      - [  0.06134427351919,  0.00000000000000 ]
    - # atom 2
      - [ -0.00000000000179,  0.00000000000000 ]
      - [  0.00000000000377,  0.00000000000000 ]
      - [ -0.22000821568267,  0.00000000000000 ]
    - # atom 3
      - [  0.00000000000089,  0.00000000000000 ]
      - [  0.00000000000219,  0.00000000000000 ]
      - [  0.11637803363822,  0.00000000000000 ]
    - # atom 4
      - [ -0.00000000000003,  0.00000000000000 ]
      - [  0.00000000000064,  0.00000000000000 ]
      - [ -0.11125351728252,  0.00000000000000 ]
    - # atom 5
      - [ -0.00000000000183,  0.00000000000000 ]
      - [  0.00000000000068,  0.00000000000000 ]
      - [ -0.39282980188970,  0.00000000000000 ]
    - # atom 6
      - [ -0.00000000000272,  0.00000000000000 ]
      - [  0.00000000000224,  0.00000000000000 ]
      - [ -0.44997095749925,  0.00000000000000 ]
    - # atom 7
      - [  0.00000000000361,  0.00000000000000 ]
      - [  0.00000000000076,  0.00000000000000 ]
      - [  0.45658907299934,  0.00000000000000 ]
    - # atom 8
      - [  0.00000000000022,  0.00000000000000 ]
      - [  0.00000000000143,  0.00000000000000 ]
      - [  0.07023941858706,  0.00000000000000 ]
    - # atom 9
      - [ -0.00000000000071,  0.00000000000000 ]
      - [  0.00000000000145,  0.00000000000000 ]
      - [ -0.07557082596884,  0.00000000000000 ]
    - # atom 10
      - [  0.00000000000018,  0.00000000000000 ]
      - [ -0.00000000000017,  0.00000000000000 ]
      - [ -0.02089131635503,  0.00000000000000 ]
    - # atom 11
      - [ -0.00000000000119,  0.00000000000000 ]
      - [  0.00000000000065,  0.00000000000000 ]
      - [ -0.19424439288164,  0.00000000000000 ]
    - # atom 12
      - [ -0.00000000000074,  0.00000000000000 ]
      - [ -0.00000000000015,  0.00000000000000 ]
      - [ -0.16485221109258,  0.00000000000000 ]
    - # atom 13
      - [  0.00000000000143,  0.00000000000000 ]
      - [  0.00000000000033,  0.00000000000000 ]
      - [  0.19869117108971,  0.00000000000000 ]
    - # atom 14
      - [ -0.01952010957321,  0.00000000000000 ]
      - [  0.05108031099403,  0.00000000000000 ]
      - [  0.10754760942509,  0.00000000000000 ]
    - # atom 15
      - [  0.01952010957515,  0.00000000000000 ]
      - [ -0.05108031099404,  0.00000000000000 ]
      - [  0.10754760942509,  0.00000000000000 ]
    - # atom 16
      - [  0.00000000000305,  0.00000000000000 ]
      - [  0.00000000000266,  0.00000000000000 ]
      - [  0.46051019935291,  0.00000000000000 ]
  - # 6
    frequency:     0.2137770293
    eigenvector:
    - # atom 1
      - [ -0.02876840009668,  0.00000000000000 ]
      - [  0.22901486483293,  0.00000000000000 ]
      - [ -0.00000000000749,  0.00000000000000 ]
    - # atom 2
      - [ -0.26330133006039,  0.00000000000000 ]
      - [  0.23135112775802,  0.00000000000000 ]
      - [ -0.00000000000532,  0.00000000000000 ]
    - # atom 3
      - [  0.08750767913925,  0.00000000000000 ]
      - [  0.02273416469990,  0.00000000000000 ]
      - [ -0.00000000000655,  0.00000000000000 ]
    - # atom 4
      - [ -0.03305141731966,  0.00000000000000 ]
      - [ -0.18051165121419,  0.00000000000000 ]
      - [ -0.00000000000342,  0.00000000000000 ]
    - # atom 5
      - [ -0.26911205745654,  0.00000000000000 ]
      - [ -0.17500161238688,  0.00000000000000 ]
      - [ -0.00000000000128,  0.00000000000000 ]
    - # atom 6
      - [ -0.38544919482547,  0.00000000000000 ]
      - [  0.02925552239806,  0.00000000000000 ]
      - [ -0.00000000000220,  0.00000000000000 ]
    - # atom 7
      - [  0.44496295923345,  0.00000000000000 ]
      - [ -0.16516855251253,  0.00000000000000 ]
      - [ -0.00000000000790,  0.00000000000000 ]
    - # atom 8
      - [  0.01994158779859,  0.00000000000000 ]
      - [  0.11151762217338,  0.00000000000000 ]
      - [ -0.00000000000288,  0.00000000000000 ]
    - # atom 9
      - [ -0.10190742296215,  0.00000000000000 ]
      - [  0.11373152168267,  0.00000000000000 ]
      - [ -0.00000000000176,  0.00000000000000 ]
    - # atom 10
      - [  0.01557387460042,  0.00000000000000 ]
      - [ -0.09915494094836,  0.00000000000000 ]
      - [ -0.00000000000077,  0.00000000000000 ]
    - # atom 11
      - [ -0.16486152638366,  0.00000000000000 ]
      - [  0.00918404217680,  0.00000000000000 ]
      - [ -0.00000000000015,  0.00000000000000 ]
    - # atom 12
      - [ -0.10488710671674,  0.00000000000000 ]
      - [ -0.09669176281744,  0.00000000000000 ]
      - [  0.00000000000033,  0.00000000000000 ]
    - # atom 13
      - [  0.18020357774429,  0.00000000000000 ]
      - [ -0.03292310344102,  0.00000000000000 ]
      - [ -0.00000000000290,  0.00000000000000 ]
    - # atom 14
      - [  0.11892366058716,  0.00000000000000 ]
      - [ -0.07736394485789,  0.00000000000000 ]
      - [ -0.00002713251961,  0.00000000000000 ]
    - # atom 15
      - [  0.11892366058626,  0.00000000000000 ]
      - [ -0.07736394485710,  0.00000000000000 ]
      - [  0.00002713251582,  0.00000000000000 ]
    - # atom 16
      - [  0.36691754576395,  0.00000000000000 ]
      - [  0.04462847823838,  0.00000000000000 ]
      - [ -0.00000000001022,  0.00000000000000 ]
  - # 7
    frequency:     2.8991664347
    eigenvector:
    - # atom 1
      - [ -0.00000000000000,  0.00000000000000 ]
      - [  0.00000000000002,  0.00000000000000 ]
      - [ -0.01140786592325,  0.00000000000000 ]
    - # atom 2
      - [ -0.00000000000001,  0.00000000000000 ]
      - [  0.00000000000002,  0.00000000000000 ]
      - [  0.23871760013739,  0.00000000000000 ]
    - # atom 3
      - [ -0.00000000000000,  0.00000000000000 ]
      - [  0.00000000000002,  0.00000000000000 ]
      - [ -0.25074449778331,  0.00000000000000 ]
    - # atom 4
      - [ -0.00000000000000,  0.00000000000000 ]
      - [  0.00000000000002,  0.00000000000000 ]
      - [ -0.31976308062454,  0.00000000000000 ]
    - # atom 5
      - [ -0.00000000000001,  0.00000000000000 ]
      - [  0.00000000000002,  0.00000000000000 ]
      - [ -0.09294255507579,  0.00000000000000 ]
    - # atom 6
      - [ -0.00000000000001,  0.00000000000000 ]
      - [  0.00000000000002,  0.00000000000000 ]
      - [  0.21516708676925,  0.00000000000000 ]
    - # atom 7
      - [  0.00000000000001,  0.00000000000000 ]
      - [  0.00000000000002,  0.00000000000000 ]
      - [  0.51552493254435,  0.00000000000000 ]
    - # atom 8
      - [ -0.00000000000000,  0.00000000000000 ]
      - [  0.00000000000001,  0.00000000000000 ]
      - [  0.01130657466593,  0.00000000000000 ]
    - # atom 9
      - [ -0.00000000000000,  0.00000000000000 ]
      - [  0.00000000000001,  0.00000000000000 ]
      - [  0.13837323438761,  0.00000000000000 ]
    - # atom 10
      - [ -0.00000000000000,  0.00000000000000 ]
      - [  0.00000000000000,  0.00000000000000 ]
      - [ -0.15611136409593,  0.00000000000000 ]
    - # atom 11
      - [ -0.00000000000000,  0.00000000000000 ]
      - [  0.00000000000001,  0.00000000000000 ]
      - [  0.12479085589613,  0.00000000000000 ]
    - # atom 12
      - [ -0.00000000000000,  0.00000000000000 ]
      - [  0.00000000000000,  0.00000000000000 ]
      - [ -0.04123605306504,  0.00000000000000 ]
    - # atom 13
      - [  0.00000000000000,  0.00000000000000 ]
      - [  0.00000000000000,  0.00000000000000 ]
      - [  0.23020655276027,  0.00000000000000 ]
    - # atom 14
      - [  0.13200952790478,  0.00000000000000 ]
      - [  0.11231021301728,  0.00000000000000 ]
      - [  0.21251321458213,  0.00000000000000 ]
    - # atom 15
      - [ -0.13200952790478,  0.00000000000000 ]
      - [ -0.11231021301727,  0.00000000000000 ]
      - [  0.21251321458213,  0.00000000000000 ]
    - # atom 16
      - [  0.00000000000000,  0.00000000000000 ]
      - [  0.00000000000002,  0.00000000000000 ]
      - [ -0.43902560327477,  0.00000000000000 ]
  - # 8
    frequency:     5.9728703471
    eigenvector:
    - # atom 1
      - [ -0.00000000000000,  0.00000000000000 ]
      - [  0.00000000000000,  0.00000000000000 ]
      - [ -0.33336682174354,  0.00000000000000 ]
    - # atom 2
      - [ -0.00000000000000,  0.00000000000000 ]
      - [  0.00000000000000,  0.00000000000000 ]
      - [ -0.05976367024658,  0.00000000000000 ]
    - # atom 3
      - [ -0.00000000000000,  0.00000000000000 ]
      - [  0.00000000000000,  0.00000000000000 ]
      - [ -0.15777736194741,  0.00000000000000 ]
    - # atom 4
      - [ -0.00000000000000,  0.00000000000000 ]
      - [  0.00000000000000,  0.00000000000000 ]
      - [ -0.24837950554438,  0.00000000000000 ]
    - # atom 5
      - [ -0.00000000000000,  0.00000000000000 ]
      - [  0.00000000000000,  0.00000000000000 ]
      - [  0.08579785322510,  0.00000000000000 ]
    - # atom 6
      - [ -0.00000000000000,  0.00000000000000 ]
      - [  0.00000000000000,  0.00000000000000 ]
      - [  0.31775352856151,  0.00000000000000 ]
    - # atom 7
      - [  0.00000000000001,  0.00000000000000 ]
      - [ -0.00000000000001,  0.00000000000000 ]
      - [ -0.02356547433501,  0.00000000000000 ]
    - # atom 8
      - [ -0.00000000000000,  0.00000000000000 ]
      - [  0.00000000000000,  0.00000000000000 ]
      - [ -0.14121886060733,  0.00000000000000 ]
    - # atom 9
      - [ -0.00000000000000,  0.00000000000000 ]
      - [  0.00000000000000,  0.00000000000000 ]
      - [ -0.02224009103741,  0.00000000000000 ]
    - # atom 10
      - [ -0.00000000000000,  0.00000000000000 ]
      - [  0.00000000000000,  0.00000000000000 ]
      - [ -0.11699183119364,  0.00000000000000 ]
    - # atom 11
      - [ -0.00000000000000,  0.00000000000000 ]
      - [  0.00000000000000,  0.00000000000000 ]
      - [  0.19503274380670,  0.00000000000000 ]
    - # atom 12
      - [ -0.00000000000000,  0.00000000000000 ]
      - [  0.00000000000000,  0.00000000000000 ]
      - [  0.05582164855021,  0.00000000000000 ]
    - # atom 13
      - [  0.00000000000000,  0.00000000000000 ]
      - [ -0.00000000000000,  0.00000000000000 ]
      - [  0.36362398733139,  0.00000000000000 ]
    - # atom 14
      - [ -0.23957271910941,  0.00000000000000 ]
      - [  0.23956953149835,  0.00000000000000 ]
      - [ -0.22307451739908,  0.00000000000000 ]
    - # atom 15
      - [  0.23957271910942,  0.00000000000000 ]
      - [ -0.23956953149836,  0.00000000000000 ]
      - [ -0.22307451739908,  0.00000000000000 ]
    - # atom 16
      - [  0.00000000000000,  0.00000000000000 ]
      - [  0.00000000000000,  0.00000000000000 ]
      - [  0.39143632626956,  0.00000000000000 ]
  - # 9
    frequency:     7.4868015280
    eigenvector:
    - # atom 1
      - [  0.19920533334325,  0.00000000000000 ]
      - [  0.06386286261580,  0.00000000000000 ]
      - [  0.00000000000000,  0.00000000000000 ]
    - # atom 2
      - [ -0.07104296763840,  0.00000000000000 ]
      - [  0.08663529707882,  0.00000000000000 ]
      - [ -0.00000000000000,  0.00000000000000 ]
    - # atom 3
      - [  0.28048747134438,  0.00000000000000 ]
      - [ -0.07962688105649,  0.00000000000000 ]
      - [  0.00000000000000,  0.00000000000000 ]
    - # atom 4
      - [  0.19586310171516,  0.00000000000000 ]
      - [ -0.23469844986294,  0.00000000000000 ]
      - [  0.00000000000001,  0.00000000000000 ]
    - # atom 5
      - [ -0.07371233064793,  0.00000000000000 ]
      - [ -0.26310031757037,  0.00000000000000 ]
      - [  0.00000000000000,  0.00000000000000 ]
    - # atom 6
      - [ -0.17983679028808,  0.00000000000000 ]
      - [ -0.09185432245836,  0.00000000000000 ]
      - [ -0.00000000000000,  0.00000000000000 ]
    - # atom 7
      - [ -0.32675024049101,  0.00000000000000 ]
      - [  0.50524933268987,  0.00000000000000 ]
      - [ -0.00000000000000,  0.00000000000000 ]
    - # atom 8
      - [  0.09035150540964,  0.00000000000000 ]
      - [  0.07051889636289,  0.00000000000000 ]
      - [ -0.00000000000000,  0.00000000000000 ]
    - # atom 9
      - [ -0.04801142268653,  0.00000000000000 ]
      - [  0.07528993716614,  0.00000000000000 ]
      - [ -0.00000000000000,  0.00000000000000 ]
    - # atom 10
      - [  0.07842822214196,  0.00000000000000 ]
      - [ -0.10164946748618,  0.00000000000000 ]
      - [  0.00000000000000,  0.00000000000000 ]
    - # atom 11
      - [ -0.09658647849561,  0.00000000000000 ]
      - [ -0.02609288447391,  0.00000000000000 ]
      - [ -0.00000000000000,  0.00000000000000 ]
    - # atom 12
      - [ -0.04968811953053,  0.00000000000000 ]
      - [ -0.12504781018860,  0.00000000000000 ]
      - [  0.00000000000000,  0.00000000000000 ]
    - # atom 13
      - [ -0.26014152075445,  0.00000000000000 ]
      - [  0.09934538993650,  0.00000000000000 ]
      - [  0.00000000000002,  0.00000000000000 ]
    - # atom 14
      - [ -0.06172668606587,  0.00000000000000 ]
      - [  0.24333814587739,  0.00000000000000 ]
      - [ -0.00042834564995,  0.00000000000000 ]
    - # atom 15
      - [ -0.06172668606586,  0.00000000000000 ]
      - [  0.24333814587736,  0.00000000000000 ]
      - [  0.00042834564993,  0.00000000000000 ]
    - # atom 16
      - [  0.08170313865353,  0.00000000000000 ]
      - [ -0.10851193642249,  0.00000000000000 ]
      - [ -0.00000000000001,  0.00000000000000 ]
  - # 10
    frequency:     7.8466005266
    eigenvector:
    - # atom 1
      - [  0.00000000000001,  0.00000000000000 ]
      - [  0.00000000000000,  0.00000000000000 ]
      - [ -0.27474196315888,  0.00000000000000 ]
    - # atom 2
      - [ -0.00000000000000,  0.00000000000000 ]
      - [  0.00000000000000,  0.00000000000000 ]
      - [  0.01069071724886,  0.00000000000000 ]
    - # atom 3
      - [  0.00000000000001,  0.00000000000000 ]
      - [ -0.00000000000000,  0.00000000000000 ]
      - [ -0.10750760127044,  0.00000000000000 ]
    - # atom 4
      - [  0.00000000000001,  0.00000000000000 ]
      - [ -0.00000000000001,  0.00000000000000 ]
      - [ -0.28439483804852,  0.00000000000000 ]
    - # atom 5
      - [ -0.00000000000000,  0.00000000000000 ]
      - [ -0.00000000000001,  0.00000000000000 ]
      - [ -0.09056645173849,  0.00000000000000 ]
    - # atom 6
      - [ -0.00000000000001,  0.00000000000000 ]
      - [ -0.00000000000000,  0.00000000000000 ]
      - [  0.25857362363774,  0.00000000000000 ]
    - # atom 7
      - [ -0.00000000000001,  0.00000000000000 ]
      - [  0.00000000000002,  0.00000000000000 ]
      - [  0.03252836325109,  0.00000000000000 ]
    - # atom 8
      - [  0.00000000000000,  0.00000000000000 ]
      - [  0.00000000000000,  0.00000000000000 ]
      - [ -0.11252581468751,  0.00000000000000 ]
    - # atom 9
      - [ -0.00000000000000,  0.00000000000000 ]
      - [  0.00000000000000,  0.00000000000000 ]
      - [  0.02246443154510,  0.00000000000000 ]
    - # atom 10
      - [  0.00000000000000,  0.00000000000000 ]
      - [ -0.00000000000000,  0.00000000000000 ]
      - [ -0.08306293480413,  0.00000000000000 ]
    - # atom 11
      - [ -0.00000000000000,  0.00000000000000 ]
      - [ -0.00000000000000,  0.00000000000000 ]
      - [  0.17654934517774,  0.00000000000000 ]
    - # atom 12
      - [ -0.00000000000000,  0.00000000000000 ]
      - [ -0.00000000000000,  0.00000000000000 ]
      - [ -0.02273029137895,  0.00000000000000 ]
    - # atom 13
      - [ -0.00000000000001,  0.00000000000000 ]
      - [  0.00000000000000,  0.00000000000000 ]
      - [ -0.44313349802919,  0.00000000000000 ]
    - # atom 14
      - [  0.14725188568747,  0.00000000000000 ]
      - [ -0.33252177216554,  0.00000000000000 ]
      - [  0.18567926585852,  0.00000000000000 ]
    - # atom 15
      - [ -0.14725188568747,  0.00000000000000 ]
      - [  0.33252177216555,  0.00000000000000 ]
      - [  0.18567926585852,  0.00000000000000 ]
    - # atom 16
      - [  0.00000000000000,  0.00000000000000 ]
      - [ -0.00000000000000,  0.00000000000000 ]
      - [  0.41744758967332,  0.00000000000000 ]
  - # 11
    frequency:    12.2809188714
    eigenvector:
    - # atom 1
      - [  0.00000000000000,  0.00000000000000 ]
      - [  0.00000000000000,  0.00000000000000 ]
      - [  0.42841377105779,  0.00000000000000 ]
    - # atom 2
      - [  0.00000000000000,  0.00000000000000 ]
      - [  0.00000000000000,  0.00000000000000 ]
      - [ -0.42421695730345,  0.00000000000000 ]
    - # atom 3
      - [  0.00000000000000,  0.00000000000000 ]
      - [ -0.00000000000000,  0.00000000000000 ]
      - [  0.00510835723227,  0.00000000000000 ]
    - # atom 4
      - [  0.00000000000000,  0.00000000000000 ]
      - [ -0.00000000000000,  0.00000000000000 ]
      - [ -0.43909040782166,  0.00000000000000 ]
    - # atom 5
      - [  0.00000000000000,  0.00000000000000 ]
      - [ -0.00000000000000,  0.00000000000000 ]
      - [  0.40626016690540,  0.00000000000000 ]
    - # atom 6
      - [ -0.00000000000000,  0.00000000000000 ]
      - [  0.00000000000000,  0.00000000000000 ]
      - [  0.00717598699118,  0.00000000000000 ]
    - # atom 7