mesh: [     1,     1,     1 ]
nqpoint: 1      
reciprocal_lattice:
- [   0.05164070,   0.00000000,   0.00000000 ] # a*
- [   0.00000000,   0.04453333,   0.00000000 ] # b*
- [   0.00000000,   0.00000000,   0.05951757 ] # c*
natom:   16     
lattice:
- [    19.3645700000000005,     0.0000000000000000,     0.0000000000000000 ] # a
- [     0.0000000000000000,    22.4550899999999984,     0.0000000000000000 ] # b
- [     0.0000000000000000,     0.0000000000000000,    16.8017600000000016 ] # c
atoms:
- symbol: C  # 1
  position: [  0.4382008229682608,  0.4847083859833361,  0.5000000000000000 ]
  mass: 12.010700
- symbol: C  # 2
  position: [  0.4374863032727642,  0.4227742058769691,  0.5000000000000000 ]
  mass: 12.010700
- symbol: C  # 3
  position: [  0.5013661112128239,  0.5154138231126588,  0.5000000000000000 ]
  mass: 12.010700
- symbol: C  # 4
  position: [  0.5636256417054352,  0.4835598432625086,  0.5000000000000000 ]
  mass: 12.010700
- symbol: C  # 5
  position: [  0.5619287535373529,  0.4212229031829258,  0.5000000000000000 ]
  mass: 12.010700
- symbol: C  # 6
  position: [  0.4993783034054217,  0.3905070518503222,  0.5000000000000000 ]
  mass: 12.010700
- symbol: C  # 7
  position: [  0.5589448683336338,  0.6099291781821561,  0.5000000000000000 ]
  mass: 12.010700
- symbol: H  # 8
  position: [  0.3904863815632139,  0.5104659777359157,  0.5000000000000000 ]
  mass: 1.007940
- symbol: H  # 9
  position: [  0.3880962825116017,  0.3994057729853004,  0.5000000000000000 ]
  mass: 1.007940
- symbol: H  # 10
  position: [  0.6131656585924888,  0.5064763490816385,  0.5000000000000000 ]
  mass: 1.007940
- symbol: H  # 11
  position: [  0.4986235990660307,  0.3419772024618196,  0.5000000000000000 ]
  mass: 1.007940
- symbol: H  # 12
  position: [  0.6105492661440234,  0.3966684037244869,  0.5000000000000000 ]
  mass: 1.007940
- symbol: H  # 13
  position: [  0.5431310694176293,  0.6567647132611464,  0.5000000000000000 ]
  mass: 1.007940
- symbol: H  # 14
  position: [  0.5901728172179826,  0.6008437940212203,  0.4464908176118927 ]
  mass: 1.007940
- symbol: H  # 15
  position: [  0.5901728172179826,  0.6008437940212203,  0.5535091823881073 ]
  mass: 1.007940
- symbol: O  # 16
  position: [  0.4964741014167840,  0.5763275965799418,  0.5000000000000000 ]
  mass: 15.999400
supercell_matrix:
- [    1,    0,    0 ]
- [    0,    1,    0 ]
- [    0,    0,    1 ]

phonon:
- q-position: [    0.0000000,    0.0000000,    0.0000000 ]
  weight: 1    
  band:
  - # 1
    frequency:    -0.3695387994
    eigenvector:
    - # atom 1
      - [  0.00000000000090,  0.00000000000000 ]
      - [ -0.00000000000038,  0.00000000000000 ]
      - [  0.45083788226152,  0.00000000000000 ]
    - # atom 2
      - [  0.00000000000130,  0.00000000000000 ]
      - [ -0.00000000000038,  0.00000000000000 ]
      - [  0.44079597049299,  0.00000000000000 ]
    - # atom 3
      - [  0.00000000000070,  0.00000000000000 ]
      - [ -0.00000000000003,  0.00000000000000 ]
      - [  0.05280433356204,  0.00000000000000 ]
    - # atom 4
      - [  0.00000000000090,  0.00000000000000 ]
      - [  0.00000000000032,  0.00000000000000 ]
      - [ -0.35245742069677,  0.00000000000000 ]
    - # atom 5
      - [  0.00000000000131,  0.00000000000000 ]
      - [  0.00000000000031,  0.00000000000000 ]
      - [ -0.35598931011900,  0.00000000000000 ]
    - # atom 6
      - [  0.00000000000151,  0.00000000000000 ]
      - [ -0.00000000000004,  0.00000000000000 ]
      - [  0.03674873845042,  0.00000000000000 ]
    - # atom 7
      - [  0.00000000000008,  0.00000000000000 ]
      - [  0.00000000000030,  0.00000000000000 ]
      - [ -0.31403171325411,  0.00000000000000 ]
    - # atom 8
      - [  0.00000000000021,  0.00000000000000 ]
      - [ -0.00000000000019,  0.00000000000000 ]
      - [  0.22095128106936,  0.00000000000000 ]
    - # atom 9
      - [  0.00000000000042,  0.00000000000000 ]
      - [ -0.00000000000019,  0.00000000000000 ]
      - [  0.21772588142207,  0.00000000000000 ]
    - # atom 10
      - [  0.00000000000022,  0.00000000000000 ]
      - [  0.00000000000017,  0.00000000000000 ]
      - [ -0.19245942873427,  0.00000000000000 ]
    - # atom 11
      - [  0.00000000000053,  0.00000000000000 ]
      - [ -0.00000000000001,  0.00000000000000 ]
      - [  0.00851845018956,  0.00000000000000 ]
    - # atom 12
      - [  0.00000000000043,  0.00000000000000 ]
      - [  0.00000000000017,  0.00000000000000 ]
      - [ -0.19501534586768,  0.00000000000000 ]
    - # atom 13
      - [ -0.00000000000007,  0.00000000000000 ]
      - [  0.00000000000006,  0.00000000000000 ]
      - [ -0.06048787920138,  0.00000000000000 ]
    - # atom 14
      - [ -0.08882960215864,  0.00000000000000 ]
      - [  0.00022860319662,  0.00000000000000 ]
      - [ -0.15076520655237,  0.00000000000000 ]
    - # atom 15
      - [  0.08882960215872,  0.00000000000000 ]
      - [ -0.00022860319635,  0.00000000000000 ]
      - [ -0.15076520655237,  0.00000000000000 ]
    - # atom 16
      - [  0.00000000000035,  0.00000000000000 ]
      - [ -0.00000000000006,  0.00000000000000 ]
      - [  0.11165133795193,  0.00000000000000 ]
  - # 2
    frequency:    -0.0000010350
    eigenvector:
    - # atom 1
      - [  0.00000000000000,  0.00000000000000 ]
      - [ -0.20175598633109,  0.00000000000000 ]
      - [ -0.26526019581478,  0.00000000000000 ]
    - # atom 2
      - [  0.00000000000254,  0.00000000000000 ]
      - [ -0.20175598633111,  0.00000000000000 ]
      - [ -0.26526019581537,  0.00000000000000 ]
    - # atom 3
      - [ -0.00000000000126,  0.00000000000000 ]
      - [ -0.20175598632885,  0.00000000000000 ]
      - [ -0.26526019581383,  0.00000000000000 ]
    - # atom 4
      - [  0.00000000000005,  0.00000000000000 ]
      - [ -0.20175598632665,  0.00000000000000 ]
      - [ -0.26526019581349,  0.00000000000000 ]
    - # atom 5
      - [  0.00000000000261,  0.00000000000000 ]
      - [ -0.20175598632671,  0.00000000000000 ]
      - [ -0.26526019581409,  0.00000000000000 ]
    - # atom 6
      - [  0.00000000000387,  0.00000000000000 ]
      - [ -0.20175598632892,  0.00000000000000 ]
      - [ -0.26526019581502,  0.00000000000000 ]
    - # atom 7
      - [ -0.00000000000514,  0.00000000000000 ]
      - [ -0.20175598632681,  0.00000000000000 ]
      - [ -0.26526019581216,  0.00000000000000 ]
    - # atom 8
      - [ -0.00000000000031,  0.00000000000000 ]
      - [ -0.05844664818040,  0.00000000000000 ]
      - [ -0.07684316893326,  0.00000000000000 ]
    - # atom 9
      - [  0.00000000000101,  0.00000000000000 ]
      - [ -0.05844664818043,  0.00000000000000 ]
      - [ -0.07684316893357,  0.00000000000000 ]
    - # atom 10
      - [ -0.00000000000026,  0.00000000000000 ]
      - [ -0.05844664817812,  0.00000000000000 ]
      - [ -0.07684316893260,  0.00000000000000 ]
    - # atom 11
      - [  0.00000000000170,  0.00000000000000 ]
      - [ -0.05844664817929,  0.00000000000000 ]
      - [ -0.07684316893339,  0.00000000000000 ]
    - # atom 12
      - [  0.00000000000105,  0.00000000000000 ]
      - [ -0.05844664817815,  0.00000000000000 ]
      - [ -0.07684316893291,  0.00000000000000 ]
    - # atom 13
      - [ -0.00000000000205,  0.00000000000000 ]
      - [ -0.05844664817884,  0.00000000000000 ]
      - [ -0.07684316893233,  0.00000000000000 ]
    - # atom 14
      - [ -0.00000000000122,  0.00000000000000 ]
      - [ -0.05844664817823,  0.00000000000000 ]
      - [ -0.07684316893235,  0.00000000000000 ]
    - # atom 15
      - [ -0.00000000000154,  0.00000000000000 ]
      - [ -0.05844664817848,  0.00000000000000 ]
      - [ -0.07684316893235,  0.00000000000000 ]
    - # atom 16
      - [ -0.00000000000434,  0.00000000000000 ]
      - [ -0.23285958441658,  0.00000000000000 ]
      - [ -0.30615388461688,  0.00000000000000 ]
  - # 3
    frequency:    -0.0000004727
    eigenvector:
    - # atom 1
      - [  0.00000000085497,  0.00000000000000 ]
      - [  0.26526019581034,  0.00000000000000 ]
      - [ -0.20175598632815,  0.00000000000000 ]
    - # atom 2
      - [  0.00000000085866,  0.00000000000000 ]
      - [  0.26526019581030,  0.00000000000000 ]
      - [ -0.20175598633372,  0.00000000000000 ]
    - # atom 3
      - [  0.00000000085314,  0.00000000000000 ]
      - [  0.26526019581359,  0.00000000000000 ]
      - [ -0.20175598632639,  0.00000000000000 ]
    - # atom 4
      - [  0.00000000085504,  0.00000000000000 ]
      - [  0.26526019581679,  0.00000000000000 ]
      - [ -0.20175598633025,  0.00000000000000 ]
    - # atom 5
      - [  0.00000000085875,  0.00000000000000 ]
      - [  0.26526019581670,  0.00000000000000 ]
      - [ -0.20175598633584,  0.00000000000000 ]
    - # atom 6
      - [  0.00000000086059,  0.00000000000000 ]
      - [  0.26526019581349,  0.00000000000000 ]
      - [ -0.20175598633762,  0.00000000000000 ]
    - # atom 7
      - [  0.00000000084752,  0.00000000000000 ]
      - [  0.26526019581654,  0.00000000000000 ]
      - [ -0.20175598631896,  0.00000000000000 ]
    - # atom 8
      - [  0.00000000024723,  0.00000000000000 ]
      - [  0.07684316893119,  0.00000000000000 ]
      - [ -0.05844664817817,  0.00000000000000 ]
    - # atom 9
      - [  0.00000000024915,  0.00000000000000 ]
      - [  0.07684316893115,  0.00000000000000 ]
      - [ -0.05844664818106,  0.00000000000000 ]
    - # atom 10
      - [  0.00000000024730,  0.00000000000000 ]
      - [  0.07684316893451,  0.00000000000000 ]
      - [ -0.05844664817930,  0.00000000000000 ]
    - # atom 11
      - [  0.00000000025014,  0.00000000000000 ]
      - [  0.07684316893280,  0.00000000000000 ]
      - [ -0.05844664818307,  0.00000000000000 ]
    - # atom 12
      - [  0.00000000024920,  0.00000000000000 ]
      - [  0.07684316893447,  0.00000000000000 ]
      - [ -0.05844664818215,  0.00000000000000 ]
    - # atom 13
      - [  0.00000000024471,  0.00000000000000 ]
      - [  0.07684316893346,  0.00000000000000 ]
      - [ -0.05844664817513,  0.00000000000000 ]
    - # atom 14
      - [  0.00000000024544,  0.00000000000000 ]
      - [  0.07684316893518,  0.00000000000000 ]
      - [ -0.05844664817679,  0.00000000000000 ]
    - # atom 15
      - [  0.00000000024591,  0.00000000000000 ]
      - [  0.07684316893314,  0.00000000000000 ]
      - [ -0.05844664817679,  0.00000000000000 ]
    - # atom 16
      - [  0.00000000098048,  0.00000000000000 ]
      - [  0.30615388461695,  0.00000000000000 ]
      - [ -0.23285958440713,  0.00000000000000 ]
  - # 4
    frequency:     0.0000011348
    eigenvector:
    - # atom 1
      - [  0.33326933477718,  0.00000000000000 ]
      - [ -0.00000000068205,  0.00000000000000 ]
      - [  0.00000000051580,  0.00000000000000 ]
    - # atom 2
      - [  0.33326933477894,  0.00000000000000 ]
      - [ -0.00000000068206,  0.00000000000000 ]
      - [  0.00000000051640,  0.00000000000000 ]
    - # atom 3
      - [  0.33326933477630,  0.00000000000000 ]
      - [ -0.00000000068050,  0.00000000000000 ]
      - [  0.00000000051669,  0.00000000000000 ]
    - # atom 4
      - [  0.33326933477721,  0.00000000000000 ]
      - [ -0.00000000067898,  0.00000000000000 ]
      - [  0.00000000051819,  0.00000000000000 ]
    - # atom 5
      - [  0.33326933477898,  0.00000000000000 ]
      - [ -0.00000000067902,  0.00000000000000 ]
      - [  0.00000000051877,  0.00000000000000 ]
    - # atom 6
      - [  0.33326933477985,  0.00000000000000 ]
      - [ -0.00000000068055,  0.00000000000000 ]
      - [  0.00000000051789,  0.00000000000000 ]
    - # atom 7
      - [  0.33326933477364,  0.00000000000000 ]
      - [ -0.00000000067910,  0.00000000000000 ]
      - [  0.00000000051693,  0.00000000000000 ]
    - # atom 8
      - [  0.09654472173563,  0.00000000000000 ]
      - [ -0.00000000019792,  0.00000000000000 ]
      - [  0.00000000014908,  0.00000000000000 ]
    - # atom 9
      - [  0.09654472173655,  0.00000000000000 ]
      - [ -0.00000000019794,  0.00000000000000 ]
      - [  0.00000000014939,  0.00000000000000 ]
    - # atom 10
      - [  0.09654472173566,  0.00000000000000 ]
      - [ -0.00000000019634,  0.00000000000000 ]
      - [  0.00000000015032,  0.00000000000000 ]
    - # atom 11
      - [  0.09654472173702,  0.00000000000000 ]
      - [ -0.00000000019715,  0.00000000000000 ]
      - [  0.00000000015016,  0.00000000000000 ]
    - # atom 12
      - [  0.09654472173657,  0.00000000000000 ]
      - [ -0.00000000019636,  0.00000000000000 ]
      - [  0.00000000015062,  0.00000000000000 ]
    - # atom 13
      - [  0.09654472173444,  0.00000000000000 ]
      - [ -0.00000000019684,  0.00000000000000 ]
      - [  0.00000000014953,  0.00000000000000 ]
    - # atom 14
      - [  0.09654472173516,  0.00000000000000 ]
      - [ -0.00000000019662,  0.00000000000000 ]
      - [  0.00000000014996,  0.00000000000000 ]
    - # atom 15
      - [  0.09654472173463,  0.00000000000000 ]
      - [ -0.00000000019640,  0.00000000000000 ]
      - [  0.00000000014995,  0.00000000000000 ]
    - # atom 16
      - [  0.38464761421177,  0.00000000000000 ]
      - [ -0.00000000078554,  0.00000000000000 ]
      - [  0.00000000059554,  0.00000000000000 ]
  - # 5
    frequency:     0.1998083857
    eigenvector:
    - # atom 1
      - [  0.00000000000000,  0.00000000000000 ]
      - [ -0.00000000000062,  0.00000000000000 ]
      - [ -0.06134427352536,  0.00000000000000 ]
    - # atom 2
      - [  0.00000000000557,  0.00000000000000 ]
      - [ -0.00000000000067,  0.00000000000000 ]
      - [  0.22000821567653,  0.00000000000000 ]
    - # atom 3
      - [ -0.00000000000276,  0.00000000000000 ]
      - [  0.00000000000428,  0.00000000000000 ]
      - [ -0.11637803364395,  0.00000000000000 ]
    - # atom 4
      - [  0.00000000000010,  0.00000000000000 ]
      - [  0.00000000000911,  0.00000000000000 ]
      - [  0.11125351727725,  0.00000000000000 ]
    - # atom 5
      - [  0.00000000000571,  0.00000000000000 ]
      - [  0.00000000000898,  0.00000000000000 ]
      - [  0.39282980188444,  0.00000000000000 ]
    - # atom 6
      - [  0.00000000000847,  0.00000000000000 ]
      - [  0.00000000000413,  0.00000000000000 ]
      - [  0.44997095749358,  0.00000000000000 ]
    - # atom 7
      - [ -0.00000000001125,  0.00000000000000 ]
      - [  0.00000000000875,  0.00000000000000 ]
      - [ -0.45658907300462,  0.00000000000000 ]
    - # atom 8
      - [ -0.00000000000067,  0.00000000000000 ]
      - [ -0.00000000000125,  0.00000000000000 ]
      - [ -0.07023941858896,  0.00000000000000 ]
    - # atom 9
      - [  0.00000000000222,  0.00000000000000 ]
      - [ -0.00000000000131,  0.00000000000000 ]
      - [  0.07557082596696,  0.00000000000000 ]
    - # atom 10
      - [ -0.00000000000057,  0.00000000000000 ]
      - [  0.00000000000375,  0.00000000000000 ]
      - [  0.02089131635360,  0.00000000000000 ]
    - # atom 11
      - [  0.00000000000372,  0.00000000000000 ]
      - [  0.00000000000118,  0.00000000000000 ]
      - [  0.19424439287999,  0.00000000000000 ]
    - # atom 12
      - [  0.00000000000229,  0.00000000000000 ]
      - [  0.00000000000369,  0.00000000000000 ]
      - [  0.16485221109116,  0.00000000000000 ]
    - # atom 13
      - [ -0.00000000000448,  0.00000000000000 ]
      - [  0.00000000000218,  0.00000000000000 ]
      - [ -0.19869117109127,  0.00000000000000 ]
    - # atom 14
      - [  0.01952010957126,  0.00000000000000 ]
      - [ -0.05108031099079,  0.00000000000000 ]
      - [ -0.10754760942655,  0.00000000000000 ]
    - # atom 15
      - [ -0.01952010957731,  0.00000000000000 ]
      - [  0.05108031099726,  0.00000000000000 ]
      - [ -0.10754760942655,  0.00000000000000 ]
    - # atom 16
      - [ -0.00000000000950,  0.00000000000000 ]
      - [  0.00000000000451,  0.00000000000000 ]
      - [ -0.46051019935957,  0.00000000000000 ]
  - # 6
    frequency:     0.2137770293
    eigenvector:
    - # atom 1
      - [ -0.02876840009354,  0.00000000000000 ]
      - [  0.22901486483210,  0.00000000000000 ]
      - [ -0.00000000000674,  0.00000000000000 ]
    - # atom 2
      - [ -0.26330133005725,  0.00000000000000 ]
      - [  0.23135112775720,  0.00000000000000 ]
      - [ -0.00000000000007,  0.00000000000000 ]
    - # atom 3
      - [  0.08750767914239,  0.00000000000000 ]
      - [  0.02273416469907,  0.00000000000000 ]
      - [ -0.00000000000872,  0.00000000000000 ]
    - # atom 4
      - [ -0.03305141731652,  0.00000000000000 ]
      - [ -0.18051165121502,  0.00000000000000 ]
      - [ -0.00000000000401,  0.00000000000000 ]
    - # atom 5
      - [ -0.26911205745339,  0.00000000000000 ]
      - [ -0.17500161238771,  0.00000000000000 ]
      - [  0.00000000000266,  0.00000000000000 ]
    - # atom 6
      - [ -0.38544919482232,  0.00000000000000 ]
      - [  0.02925552239723,  0.00000000000000 ]
      - [  0.00000000000470,  0.00000000000000 ]
    - # atom 7
      - [  0.44496295923660,  0.00000000000000 ]
      - [ -0.16516855251337,  0.00000000000000 ]
      - [ -0.00000000001744,  0.00000000000000 ]
    - # atom 8
      - [  0.01994158779950,  0.00000000000000 ]
      - [  0.11151762217314,  0.00000000000000 ]
      - [ -0.00000000000304,  0.00000000000000 ]
    - # atom 9
      - [ -0.10190742296124,  0.00000000000000 ]
      - [  0.11373152168243,  0.00000000000000 ]
      - [  0.00000000000042,  0.00000000000000 ]
    - # atom 10
      - [  0.01557387460133,  0.00000000000000 ]
      - [ -0.09915494094860,  0.00000000000000 ]
      - [ -0.00000000000159,  0.00000000000000 ]
    - # atom 11
      - [ -0.16486152638275,  0.00000000000000 ]
      - [  0.00918404217656,  0.00000000000000 ]
      - [  0.00000000000287,  0.00000000000000 ]
    - # atom 12
      - [ -0.10488710671583,  0.00000000000000 ]
      - [ -0.09669176281768,  0.00000000000000 ]
      - [  0.00000000000182,  0.00000000000000 ]
    - # atom 13
      - [  0.18020357774521,  0.00000000000000 ]
      - [ -0.03292310344126,  0.00000000000000 ]
      - [ -0.00000000000658,  0.00000000000000 ]
    - # atom 14
      - [  0.11892366058794,  0.00000000000000 ]
      - [ -0.07736394485895,  0.00000000000000 ]
      - [ -0.00002713252228,  0.00000000000000 ]
    - # atom 15
      - [  0.11892366058731,  0.00000000000000 ]
      - [ -0.07736394485652,  0.00000000000000 ]
      - [  0.00002713251315,  0.00000000000000 ]
    - # atom 16
      - [  0.36691754576758,  0.00000000000000 ]
      - [  0.04462847823743,  0.00000000000000 ]
      - [ -0.00000000001773,  0.00000000000000 ]
  - # 7
    frequency:     2.8991664347
    eigenvector:
    - # atom 1
      - [ -0.00000000000000,  0.00000000000000 ]
      - [  0.00000000000001,  0.00000000000000 ]
      - [ -0.01140786592320,  0.00000000000000 ]
    - # atom 2
      - [ -0.00000000000001,  0.00000000000000 ]
      - [  0.00000000000001,  0.00000000000000 ]
      - [  0.23871760013742,  0.00000000000000 ]
    - # atom 3
      - [ -0.00000000000000,  0.00000000000000 ]
      - [  0.00000000000001,  0.00000000000000 ]
      - [ -0.25074449778326,  0.00000000000000 ]
    - # atom 4
      - [ -0.00000000000000,  0.00000000000000 ]
      - [  0.00000000000001,  0.00000000000000 ]
      - [ -0.31976308062449,  0.00000000000000 ]
    - # atom 5
      - [ -0.00000000000001,  0.00000000000000 ]
      - [  0.00000000000001,  0.00000000000000 ]
      - [ -0.09294255507575,  0.00000000000000 ]
    - # atom 6
      - [ -0.00000000000001,  0.00000000000000 ]
      - [  0.00000000000001,  0.00000000000000 ]
      - [  0.21516708676929,  0.00000000000000 ]
    - # atom 7
      - [ -0.00000000000000,  0.00000000000000 ]
      - [  0.00000000000001,  0.00000000000000 ]
      - [  0.51552493254442,  0.00000000000000 ]
    - # atom 8
      - [ -0.00000000000000,  0.00000000000000 ]
      - [  0.00000000000000,  0.00000000000000 ]
      - [  0.01130657466594,  0.00000000000000 ]
    - # atom 9
      - [ -0.00000000000000,  0.00000000000000 ]
      - [  0.00000000000000,  0.00000000000000 ]
      - [  0.13837323438762,  0.00000000000000 ]
    - # atom 10
      - [ -0.00000000000000,  0.00000000000000 ]
      - [  0.00000000000000,  0.00000000000000 ]
      - [ -0.15611136409592,  0.00000000000000 ]
    - # atom 11
      - [ -0.00000000000000,  0.00000000000000 ]
      - [  0.00000000000000,  0.00000000000000 ]
      - [  0.12479085589613,  0.00000000000000 ]
    - # atom 12
      - [ -0.00000000000000,  0.00000000000000 ]
      - [  0.00000000000000,  0.00000000000000 ]
      - [ -0.04123605306503,  0.00000000000000 ]
    - # atom 13
      - [ -0.00000000000000,  0.00000000000000 ]
      - [  0.00000000000000,  0.00000000000000 ]
      - [  0.23020655276029,  0.00000000000000 ]
    - # atom 14
      - [  0.13200952790478,  0.00000000000000 ]
      - [  0.11231021301728,  0.00000000000000 ]
      - [  0.21251321458215,  0.00000000000000 ]
    - # atom 15
      - [ -0.13200952790478,  0.00000000000000 ]
      - [ -0.11231021301727,  0.00000000000000 ]
      - [  0.21251321458215,  0.00000000000000 ]
    - # atom 16
      - [ -0.00000000000000,  0.00000000000000 ]
      - [  0.00000000000001,  0.00000000000000 ]
      - [ -0.43902560327469,  0.00000000000000 ]
  - # 8
    frequency:     5.9728703471
    eigenvector:
    - # atom 1
      - [ -0.00000000000001,  0.00000000000000 ]
      - [ -0.00000000000000,  0.00000000000000 ]
      - [  0.33336682174354,  0.00000000000000 ]
    - # atom 2
      - [ -0.00000000000000,  0.00000000000000 ]
      - [ -0.00000000000000,  0.00000000000000 ]
      - [  0.05976367024657,  0.00000000000000 ]
    - # atom 3
      - [ -0.00000000000001,  0.00000000000000 ]
      - [  0.00000000000000,  0.00000000000000 ]
      - [  0.15777736194740,  0.00000000000000 ]
    - # atom 4
      - [ -0.00000000000001,  0.00000000000000 ]
      - [  0.00000000000000,  0.00000000000000 ]
      - [  0.24837950554438,  0.00000000000000 ]
    - # atom 5
      - [ -0.00000000000000,  0.00000000000000 ]
      - [  0.00000000000000,  0.00000000000000 ]
      - [ -0.08579785322510,  0.00000000000000 ]
    - # atom 6
      - [  0.00000000000000,  0.00000000000000 ]
      - [ -0.00000000000000,  0.00000000000000 ]
      - [ -0.31775352856151,  0.00000000000000 ]
    - # atom 7
      - [ -0.00000000000000,  0.00000000000000 ]
      - [ -0.00000000000001,  0.00000000000000 ]
      - [  0.02356547433500,  0.00000000000000 ]
    - # atom 8
      - [ -0.00000000000000,  0.00000000000000 ]
      - [ -0.00000000000000,  0.00000000000000 ]
      - [  0.14121886060733,  0.00000000000000 ]
    - # atom 9
      - [ -0.00000000000000,  0.00000000000000 ]
      - [ -0.00000000000000,  0.00000000000000 ]
      - [  0.02224009103741,  0.00000000000000 ]
    - # atom 10
      - [ -0.00000000000000,  0.00000000000000 ]
      - [  0.00000000000000,  0.00000000000000 ]
      - [  0.11699183119364,  0.00000000000000 ]
    - # atom 11
      - [  0.00000000000000,  0.00000000000000 ]
      - [ -0.00000000000000,  0.00000000000000 ]
      - [ -0.19503274380670,  0.00000000000000 ]
    - # atom 12
      - [  0.00000000000000,  0.00000000000000 ]
      - [  0.00000000000000,  0.00000000000000 ]
      - [ -0.05582164855021,  0.00000000000000 ]
    - # atom 13
      - [  0.00000000000000,  0.00000000000000 ]
      - [ -0.00000000000000,  0.00000000000000 ]
      - [ -0.36362398733139,  0.00000000000000 ]
    - # atom 14
      - [  0.23957271910941,  0.00000000000000 ]
      - [ -0.23956953149836,  0.00000000000000 ]
      - [  0.22307451739907,  0.00000000000000 ]
    - # atom 15
      - [ -0.23957271910942,  0.00000000000000 ]
      - [  0.23956953149835,  0.00000000000000 ]
      - [  0.22307451739907,  0.00000000000000 ]
    - # atom 16
      - [ -0.00000000000001,  0.00000000000000 ]
      - [  0.00000000000000,  0.00000000000000 ]
      - [ -0.39143632626957,  0.00000000000000 ]
  - # 9
    frequency:     7.4868015280
    eigenvector:
    - # atom 1
      - [  0.19920533334325,  0.00000000000000 ]
      - [  0.06386286261580,  0.00000000000000 ]
      - [  0.00000000000001,  0.00000000000000 ]
    - # atom 2
      - [ -0.07104296763839,  0.00000000000000 ]
      - [  0.08663529707883,  0.00000000000000 ]
      - [ -0.00000000000001,  0.00000000000000 ]
    - # atom 3
      - [  0.28048747134438,  0.00000000000000 ]
      - [ -0.07962688105649,  0.00000000000000 ]
      - [  0.00000000000000,  0.00000000000000 ]
    - # atom 4
      - [  0.19586310171516,  0.00000000000000 ]
      - [ -0.23469844986294,  0.00000000000000 ]
      - [ -0.00000000000000,  0.00000000000000 ]
    - # atom 5
      - [ -0.07371233064793,  0.00000000000000 ]
      - [ -0.26310031757037,  0.00000000000000 ]
      - [  0.00000000000000,  0.00000000000000 ]
    - # atom 6
      - [ -0.17983679028808,  0.00000000000000 ]
      - [ -0.09185432245835,  0.00000000000000 ]
      - [ -0.00000000000001,  0.00000000000000 ]
    - # atom 7
      - [ -0.32675024049100,  0.00000000000000 ]
      - [  0.50524933268987,  0.00000000000000 ]
      - [  0.00000000000000,  0.00000000000000 ]
    - # atom 8
      - [  0.09035150540964,  0.00000000000000 ]
      - [  0.07051889636289,  0.00000000000000 ]
      - [  0.00000000000000,  0.00000000000000 ]
    - # atom 9
      - [ -0.04801142268653,  0.00000000000000 ]
      - [  0.07528993716614,  0.00000000000000 ]
      - [ -0.00000000000000,  0.00000000000000 ]
    - # atom 10
      - [  0.07842822214196,  0.00000000000000 ]
      - [ -0.10164946748618,  0.00000000000000 ]
      - [  0.00000000000000,  0.00000000000000 ]
    - # atom 11
      - [ -0.09658647849561,  0.00000000000000 ]
      - [ -0.02609288447391,  0.00000000000000 ]
      - [ -0.00000000000000,  0.00000000000000 ]
    - # atom 12
      - [ -0.04968811953053,  0.00000000000000 ]
      - [ -0.12504781018860,  0.00000000000000 ]
      - [  0.00000000000000,  0.00000000000000 ]
    - # atom 13
      - [ -0.26014152075445,  0.00000000000000 ]
      - [  0.09934538993650,  0.00000000000000 ]
      - [ -0.00000000000001,  0.00000000000000 ]
    - # atom 14
      - [ -0.06172668606586,  0.00000000000000 ]
      - [  0.24333814587737,  0.00000000000000 ]
      - [ -0.00042834564994,  0.00000000000000 ]
    - # atom 15
      - [ -0.06172668606586,  0.00000000000000 ]
      - [  0.24333814587738,  0.00000000000000 ]
      - [  0.00042834564994,  0.00000000000000 ]
    - # atom 16
      - [  0.08170313865354,  0.00000000000000 ]
      - [ -0.10851193642249,  0.00000000000000 ]
      - [ -0.00000000000000,  0.00000000000000 ]
  - # 10
    frequency:     7.8466005266
    eigenvector:
    - # atom 1
      - [  0.00000000000000,  0.00000000000000 ]
      - [  0.00000000000000,  0.00000000000000 ]
      - [  0.27474196315887,  0.00000000000000 ]
    - # atom 2
      - [ -0.00000000000000,  0.00000000000000 ]
      - [  0.00000000000000,  0.00000000000000 ]
      - [ -0.01069071724888,  0.00000000000000 ]
    - # atom 3
      - [  0.00000000000000,  0.00000000000000 ]
      - [ -0.00000000000000,  0.00000000000000 ]
      - [  0.10750760127043,  0.00000000000000 ]
    - # atom 4
      - [ -0.00000000000000,  0.00000000000000 ]
      - [ -0.00000000000000,  0.00000000000000 ]
      - [  0.28439483804851,  0.00000000000000 ]
    - # atom 5
      - [ -0.00000000000000,  0.00000000000000 ]
      - [ -0.00000000000000,  0.00000000000000 ]
      - [  0.09056645173849,  0.00000000000000 ]
    - # atom 6
      - [ -0.00000000000000,  0.00000000000000 ]
      - [ -0.00000000000000,  0.00000000000000 ]
      - [ -0.25857362363774,  0.00000000000000 ]
    - # atom 7
      - [  0.00000000000000,  0.00000000000000 ]
      - [ -0.00000000000000,  0.00000000000000 ]
      - [ -0.03252836325109,  0.00000000000000 ]
    - # atom 8
      - [ -0.00000000000000,  0.00000000000000 ]
      - [ -0.00000000000000,  0.00000000000000 ]
      - [  0.11252581468751,  0.00000000000000 ]
    - # atom 9
      - [ -0.00000000000000,  0.00000000000000 ]
      - [  0.00000000000000,  0.00000000000000 ]
      - [ -0.02246443154511,  0.00000000000000 ]
    - # atom 10
      - [ -0.00000000000000,  0.00000000000000 ]
      - [ -0.00000000000000,  0.00000000000000 ]
      - [  0.08306293480413,  0.00000000000000 ]
    - # atom 11
      - [ -0.00000000000000,  0.00000000000000 ]
      - [ -0.00000000000000,  0.00000000000000 ]
      - [ -0.17654934517773,  0.00000000000000 ]
    - # atom 12
      - [ -0.00000000000000,  0.00000000000000 ]
      - [ -0.00000000000000,  0.00000000000000 ]
      - [  0.02273029137895,  0.00000000000000 ]
    - # atom 13
      - [  0.00000000000000,  0.00000000000000 ]
      - [ -0.00000000000000,  0.00000000000000 ]
      - [  0.44313349802919,  0.00000000000000 ]
    - # atom 14
      - [ -0.14725188568747,  0.00000000000000 ]
      - [  0.33252177216555,  0.00000000000000 ]
      - [ -0.18567926585852,  0.00000000000000 ]
    - # atom 15
      - [  0.14725188568747,  0.00000000000000 ]
      - [ -0.33252177216555,  0.00000000000000 ]
      - [ -0.18567926585852,  0.00000000000000 ]
    - # atom 16
      - [  0.00000000000000,  0.00000000000000 ]
      - [  0.00000000000000,  0.00000000000000 ]
      - [ -0.41744758967333,  0.00000000000000 ]
  - # 11
    frequency:    12.2809188714
    eigenvector:
    - # atom 1
      - [  0.00000000000000,  0.00000000000000 ]
      - [  0.00000000000000,  0.00000000000000 ]
      - [  0.42841377105778,  0.00000000000000 ]
    - # atom 2
      - [ -0.00000000000000,  0.00000000000000 ]
      - [  0.00000000000000,  0.00000000000000 ]
      - [ -0.42421695730345,  0.00000000000000 ]
    - # atom 3
      - [  0.00000000000000,  0.00000000000000 ]
      - [ -0.00000000000000,  0.00000000000000 ]
      - [  0.00510835723226,  0.00000000000000 ]
    - # atom 4
      - [  0.00000000000000,  0.00000000000000 ]
      - [  0.00000000000000,  0.00000000000000 ]
      - [ -0.43909040782166,  0.00000000000000 ]
    - # atom 5
      - [  0.00000000000000,  0.00000000000000 ]
      - [  0.00000000000000,  0.00000000000000 ]
      - [  0.40626016690541,  0.00000000000000 ]
    - # atom 6
      - [  0.00000000000000,  0.00000000000000 ]