14.400
   1.0258180   0.0001660  -0.0000620   0.0001660   1.0300790   0.0000990  -0.0000620   0.0000990   1.0152260
   0.0513700  -0.0556000   0.0002500  -0.1311800  -0.1395900  -0.0030600  -0.0045200  -0.0048200  -0.1253000
   0.0737000   0.0392900   0.0001700   0.0397900   0.0292000  -0.0037600   0.0020700   0.0008100  -0.1289800
  -0.0745400   0.0229700   0.0015100   0.0326500   0.4077800   0.0588500   0.0007200   0.0226000  -0.0758800
   0.0652700   0.0434700  -0.0026200   0.1263000  -0.1492600  -0.0045600   0.0022600  -0.0056900  -0.1259900
   0.0721900  -0.0374200  -0.0025600  -0.0422500   0.0244900  -0.0034400  -0.0043200   0.0012700  -0.1310900
  -0.0715800   0.0014200  -0.0005500   0.0072900   0.0315100  -0.0017700  -0.0005000  -0.0022000  -0.1396500
   0.1032600  -0.0133100  -0.0023800  -0.0748400  -0.0651100  -0.0891000  -0.0009300  -0.0106800   0.1041500
  -0.0862100   0.0084900  -0.0374400   0.1070800   0.0008600   0.0404400  -0.0399800   0.0048200   0.0628300
  -0.0148000  -0.0085500   0.0812300  -0.0553800  -0.0222300   0.0856000   0.0838900   0.0139600   0.0039000
   0.0709400  -0.0055300  -0.0427000  -0.0119300  -0.0526200  -0.0891100  -0.0436600  -0.0250200  -0.0690100
  -0.0571900   0.0912800  -0.0019700   0.0778900   0.0053600   0.0026000   0.0004600   0.0013400   0.1222400
  -0.0673100  -0.0712500  -0.0006000  -0.0773800   0.0148100   0.0019200   0.0006900   0.0007600   0.1266000
   0.0627900  -0.0022200   0.0004100  -0.0018500  -0.1080000   0.0007200   0.0004200   0.0005300   0.1315500
  -0.0623400  -0.0869500   0.0043600  -0.0759600   0.0137700   0.0036700   0.0018300   0.0024300   0.1200700
  -0.0639300   0.0739200   0.0029100   0.0797300   0.0106500   0.0010300   0.0015900  -0.0001000   0.1262200
